 vasp.5.4.1 24Jun15 (build Oct  9 2015 14:58:31) complex                         
 executed on           IFC91_ompi date 2017.05.25  07:06:25
 running on   16 total cores
 distrk:  each k-point on   16 cores,    1 groups
 distr:  one band on NCORES_PER_BAND=   4 cores,    4 groups


--------------------------------------------------------------------------------------------------------


 INCAR:
 POTCAR:   PAW_PBE Mn 06Sep2000                   
 POTCAR:   PAW_PBE As 06Sep2000                   
 POTCAR:   PAW_PBE Mn 06Sep2000                   
   VRHFIN =Mn: d6 s1                                                            
   LEXCH  = PE                                                                  
   EATOM  =   416.8732 eV,   30.6393 Ry                                         
                                                                                
   TITEL  = PAW_PBE Mn 06Sep2000                                                
   LULTRA =        F    use ultrasoft PP ?                                      
   IUNSCR =        1    unscreen: 0-lin 1-nonlin 2-no                           
   RPACOR =    2.000    partial core radius                                     
   POMASS =   54.938; ZVAL   =    7.000    mass and valenz                      
   RCORE  =    2.300    outmost cutoff radius                                   
   RWIGS  =    2.500; RWIGS  =    1.323    wigner-seitz radius (au A)           
   ENMAX  =  269.865; ENMIN  =  202.399 eV                                      
   RCLOC  =    1.725    cutoff for local pot                                    
   LCOR   =        T    correct aug charges                                     
   LPAW   =        T    paw PP                                                  
   EAUG   =  500.711                                                            
   DEXC   =    -.071                                                            
   RMAX   =    2.807    core radius for proj-oper                               
   RAUG   =    1.300    factor for augmentation sphere                          
   RDEP   =    2.338    radius for radial grids                                 
   QCUT   =   -4.454; QGAM   =    8.907    optimization parameters              
                                                                                
   Description                                                                  
     l     E      TYP  RCUT    TYP  RCUT                                        
     2   .000     23  2.300                                                     
     2   .000     23  2.300                                                     
     0   .000     23  2.300                                                     
     0   .000     23  2.300                                                     
     1  -.200     23  2.300                                                     
     1  1.500     23  2.300                                                     
     3   .000      7   .000                                                     
  local pseudopotential read in
  partial core-charges read in
  atomic valenz-charges read in
  non local Contribution for L=           2  read in
    real space projection operators read in
  non local Contribution for L=           2  read in
    real space projection operators read in
  non local Contribution for L=           0  read in
    real space projection operators read in
  non local Contribution for L=           0  read in
    real space projection operators read in
  non local Contribution for L=           1  read in
    real space projection operators read in
  non local Contribution for L=           1  read in
    real space projection operators read in
    PAW grid and wavefunctions read in

   number of l-projection  operators is LMAX  =           6
   number of lm-projection operators is LMMAX =          18

 POTCAR:   PAW_PBE As 06Sep2000                   
   VRHFIN =As: s2p3                                                             
   LEXCH  = PE                                                                  
   EATOM  =   170.0753 eV,   12.5002 Ry                                         
                                                                                
   TITEL  = PAW_PBE As 06Sep2000                                                
   LULTRA =        F    use ultrasoft PP ?                                      
   IUNSCR =        1    unscreen: 0-lin 1-nonlin 2-no                           
   RPACOR =    1.900    partial core radius                                     
   POMASS =   74.922; ZVAL   =    5.000    mass and valenz                      
   RCORE  =    2.100    outmost cutoff radius                                   
   RWIGS  =    2.300; RWIGS  =    1.217    wigner-seitz radius (au A)           
   ENMAX  =  208.680; ENMIN  =  156.510 eV                                      
   ICORE  =        3    local potential                                         
   LCOR   =        T    correct aug charges                                     
   LPAW   =        T    paw PP                                                  
   EAUG   =  462.758                                                            
   DEXC   =    -.108                                                            
   RMAX   =    3.192    core radius for proj-oper                               
   RAUG   =    1.300    factor for augmentation sphere                          
   RDEP   =    2.140    radius for radial grids                                 
   QCUT   =   -3.916; QGAM   =    7.833    optimization parameters              
                                                                                
   Description                                                                  
     l     E      TYP  RCUT    TYP  RCUT                                        
     0   .000     23  2.100                                                     
     0   .000     23  2.100                                                     
     1   .000     23  2.100                                                     
     1   .000     23  2.100                                                     
     2   .000     23  2.100                                                     
     3  -.100      7  2.100                                                     
  local pseudopotential read in
  partial core-charges read in
  atomic valenz-charges read in
  non local Contribution for L=           0  read in
    real space projection operators read in
  non local Contribution for L=           0  read in
    real space projection operators read in
  non local Contribution for L=           1  read in
    real space projection operators read in
  non local Contribution for L=           1  read in
    real space projection operators read in
  non local Contribution for L=           2  read in
    real space projection operators read in
    PAW grid and wavefunctions read in

   number of l-projection  operators is LMAX  =           5
   number of lm-projection operators is LMMAX =          13

 PAW_PBE Mn 06Sep2000                   :
 energy of atom  1       EATOM= -416.8732
 kinetic energy error for atom=    0.0239 (will be added to EATOM!!)
 PAW_PBE As 06Sep2000                   :
 energy of atom  2       EATOM= -170.0753
 kinetic energy error for atom=    0.0021 (will be added to EATOM!!)


 POSCAR: For VASP. System=    MnAs_hex           
  positions in direct lattice
  No initial velocities read in
 exchange correlation table for  LEXCH =        8
   RHO(1)=    0.500       N(1)  =     2000
   RHO(2)=  100.500       N(2)  =     4000



--------------------------------------------------------------------------------------------------------


 ion  position               nearest neighbor table
   1  0.667  0.667  0.000-  56 2.53  55 2.53  46 2.53  49 2.53  48 2.53  61 2.53  19 2.75  28 2.75

   2  0.000  0.667  0.000-  56 2.53  46 2.53  57 2.53  47 2.53  50 2.53  62 2.53  20 2.75  29 2.75

   3  0.333  0.667  0.000-  57 2.53  47 2.53  51 2.53  55 2.53  48 2.53  63 2.53  21 2.75  30 2.75

   4  0.667  0.000  0.000-  49 2.53  59 2.53  58 2.53  52 2.53  55 2.53  51 2.53  22 2.75  31 2.75

   5  0.015  0.000  0.000-  50 2.41  60 2.41  56 2.53  53 2.53  59 2.65  49 2.65  23 2.76  32 2.76

   6  0.333  0.000  0.000-  60 2.53  50 2.53  51 2.53  57 2.53  54 2.53  58 2.53  24 2.75  33 2.75

   7  0.667  0.333  0.000-  52 2.53  62 2.53  58 2.53  54 2.53  61 2.53  46 2.53  25 2.75  34 2.75

   8  0.000  0.333  0.000-  53 2.53  52 2.53  63 2.53  62 2.53  59 2.53  47 2.53  26 2.75  35 2.75

   9  0.333  0.333  0.000-  53 2.53  54 2.53  63 2.53  60 2.53  61 2.53  48 2.53  27 2.75  36 2.75

  10  0.667  0.667  0.500-  65 2.53  64 2.53  37 2.53  40 2.53  39 2.53  70 2.53  19 2.75  28 2.75

  11  0.000  0.667  0.500-  65 2.53  37 2.53  66 2.53  38 2.53  41 2.53  71 2.53  20 2.75  29 2.75

  12  0.333  0.667  0.500-  66 2.53  38 2.53  42 2.53  64 2.53  39 2.53  72 2.53  21 2.75  30 2.75

  13  0.667  0.000  0.500-  40 2.53  68 2.53  67 2.53  43 2.53  64 2.53  42 2.53  22 2.75  31 2.75

  14  0.000  0.000  0.500-  41 2.53  68 2.53  40 2.53  69 2.53  44 2.53  65 2.53  23 2.75  32 2.75

  15  0.333  0.000  0.500-  69 2.53  41 2.53  42 2.53  66 2.53  45 2.53  67 2.53  24 2.75  33 2.75

  16  0.667  0.333  0.500-  43 2.53  71 2.53  67 2.53  45 2.53  70 2.53  37 2.53  25 2.75  34 2.75

  17  0.000  0.333  0.500-  44 2.53  43 2.53  72 2.53  71 2.53  68 2.53  38 2.53  26 2.75  35 2.75

  18  0.333  0.333  0.500-  44 2.53  45 2.53  72 2.53  69 2.53  70 2.53  39 2.53  27 2.75  36 2.75

  19  0.667  0.667  0.750-  56 2.53  55 2.53  37 2.53  40 2.53  39 2.53  61 2.53   1 2.75  10 2.75

  20  0.000  0.667  0.750-  56 2.53  37 2.53  57 2.53  38 2.53  41 2.53  62 2.53   2 2.75  11 2.75

  21  0.333  0.667  0.750-  57 2.53  38 2.53  42 2.53  55 2.53  39 2.53  63 2.53   3 2.75  12 2.75

  22  0.667  0.000  0.750-  40 2.53  59 2.53  58 2.53  43 2.53  55 2.53  42 2.53   4 2.75  13 2.75

  23  0.000  0.000  0.750-  41 2.53  59 2.53  40 2.53  60 2.53  44 2.53  56 2.53  14 2.75   5 2.76

  24  0.333  0.000  0.750-  60 2.53  41 2.53  42 2.53  57 2.53  45 2.53  58 2.53   6 2.75  15 2.75

  25  0.667  0.333  0.750-  43 2.53  62 2.53  58 2.53  45 2.53  61 2.53  37 2.53   7 2.75  16 2.75

  26  0.000  0.333  0.750-  44 2.53  43 2.53  63 2.53  62 2.53  59 2.53  38 2.53   8 2.75  17 2.75

  27  0.333  0.333  0.750-  44 2.53  45 2.53  63 2.53  60 2.53  61 2.53  39 2.53   9 2.75  18 2.75

  28  0.667  0.667  0.250-  65 2.53  64 2.53  46 2.53  49 2.53  48 2.53  70 2.53   1 2.75  10 2.75

  29  0.000  0.667  0.250-  65 2.53  46 2.53  66 2.53  47 2.53  50 2.53  71 2.53   2 2.75  11 2.75

  30  0.333  0.667  0.250-  66 2.53  47 2.53  51 2.53  64 2.53  48 2.53  72 2.53   3 2.75  12 2.75

  31  0.667  0.000  0.250-  49 2.53  68 2.53  67 2.53  52 2.53  64 2.53  51 2.53   4 2.75  13 2.75

  32  0.000  0.000  0.250-  50 2.53  68 2.53  49 2.53  69 2.53  53 2.53  65 2.53  14 2.75   5 2.76

  33  0.333  0.000  0.250-  69 2.53  50 2.53  51 2.53  66 2.53  54 2.53  67 2.53   6 2.75  15 2.75

  34  0.667  0.333  0.250-  52 2.53  71 2.53  67 2.53  54 2.53  70 2.53  46 2.53   7 2.75  16 2.75

  35  0.000  0.333  0.250-  53 2.53  52 2.53  72 2.53  71 2.53  68 2.53  47 2.53   8 2.75  17 2.75

  36  0.333  0.333  0.250-  53 2.53  54 2.53  72 2.53  69 2.53  70 2.53  48 2.53   9 2.75  18 2.75

  37  0.778  0.556  0.625-  11 2.53  20 2.53  19 2.53  10 2.53  16 2.53  25 2.53
  38  0.111  0.556  0.625-  12 2.53  21 2.53  20 2.53  11 2.53  17 2.53  26 2.53
  39  0.444  0.556  0.625-  10 2.53  19 2.53  12 2.53  21 2.53  18 2.53  27 2.53
  40  0.778  0.889  0.625-  13 2.53  22 2.53  14 2.53  23 2.53  10 2.53  19 2.53
  41  0.111  0.889  0.625-  14 2.53  23 2.53  15 2.53  24 2.53  11 2.53  20 2.53
  42  0.444  0.889  0.625-  15 2.53  24 2.53  21 2.53  12 2.53  22 2.53  13 2.53
  43  0.778  0.222  0.625-  16 2.53  25 2.53  17 2.53  26 2.53  13 2.53  22 2.53
  44  0.111  0.222  0.625-  17 2.53  26 2.53  18 2.53  27 2.53  14 2.53  23 2.53
  45  0.444  0.222  0.625-  18 2.53  27 2.53  24 2.53  15 2.53  25 2.53  16 2.53
  46  0.778  0.556  0.125-   2 2.53  29 2.53  28 2.53   1 2.53   7 2.53  34 2.53
  47  0.111  0.556  0.125-   3 2.53  30 2.53  29 2.53   2 2.53   8 2.53  35 2.53
  48  0.444  0.556  0.125-   1 2.53  28 2.53   3 2.53  30 2.53   9 2.53  36 2.53
  49  0.778  0.889  0.125-   4 2.53  31 2.53  32 2.53   1 2.53  28 2.53   5 2.65
  50  0.111  0.889  0.125-   5 2.41  32 2.53   6 2.53  33 2.53   2 2.53  29 2.53
  51  0.444  0.889  0.125-   6 2.53  33 2.53  30 2.53   3 2.53  31 2.53   4 2.53
  52  0.778  0.222  0.125-   7 2.53  34 2.53   8 2.53  35 2.53   4 2.53  31 2.53
  53  0.111  0.222  0.125-   8 2.53  35 2.53   9 2.53  36 2.53  32 2.53   5 2.53
  54  0.444  0.222  0.125-   9 2.53  36 2.53  33 2.53   6 2.53  34 2.53   7 2.53
  55  0.556  0.778  0.875-   1 2.53  19 2.53   4 2.53  22 2.53  21 2.53   3 2.53
  56  0.889  0.778  0.875-   2 2.53  20 2.53  19 2.53   1 2.53  23 2.53   5 2.53
  57  0.222  0.778  0.875-   3 2.53  21 2.53  20 2.53   2 2.53   6 2.53  24 2.53
  58  0.556  0.111  0.875-   4 2.53  22 2.53   7 2.53  25 2.53  24 2.53   6 2.53
  59  0.889  0.111  0.875-  23 2.53  22 2.53   4 2.53   8 2.53  26 2.53   5 2.65
  60  0.222  0.111  0.875-   5 2.41   6 2.53  24 2.53  23 2.53   9 2.53  27 2.53
  61  0.556  0.444  0.875-   9 2.53  27 2.53  25 2.53   7 2.53   1 2.53  19 2.53
  62  0.889  0.444  0.875-   7 2.53  25 2.53   8 2.53  26 2.53   2 2.53  20 2.53
  63  0.222  0.444  0.875-   8 2.53  26 2.53   9 2.53  27 2.53   3 2.53  21 2.53
  64  0.556  0.778  0.375-  10 2.53  28 2.53  13 2.53  31 2.53  30 2.53  12 2.53
  65  0.889  0.778  0.375-  11 2.53  29 2.53  28 2.53  10 2.53  14 2.53  32 2.53
  66  0.222  0.778  0.375-  12 2.53  30 2.53  29 2.53  11 2.53  15 2.53  33 2.53
  67  0.556  0.111  0.375-  13 2.53  31 2.53  16 2.53  34 2.53  33 2.53  15 2.53
  68  0.889  0.111  0.375-  14 2.53  32 2.53  31 2.53  13 2.53  17 2.53  35 2.53
  69  0.222  0.111  0.375-  15 2.53  33 2.53  32 2.53  14 2.53  18 2.53  36 2.53
  70  0.556  0.444  0.375-  18 2.53  36 2.53  34 2.53  16 2.53  10 2.53  28 2.53
  71  0.889  0.444  0.375-  16 2.53  34 2.53  17 2.53  35 2.53  11 2.53  29 2.53
  72  0.222  0.444  0.375-  17 2.53  35 2.53  18 2.53  36 2.53  12 2.53  30 2.53

  LATTYP: Found a hexagonal cell.
 ALAT       =    11.0002171438
 C/A-ratio  =     1.0013686964
  
  Lattice vectors:
  
 A1 = (  11.0002171438,   0.0000000000,   0.0000000000)
 A2 = (  -5.5001085719,   9.5264674936,   0.0000000000)
 A3 = (   0.0000000000,   0.0000000000,  11.0152731015)


Analysis of symmetry for initial positions (statically):
=====================================================================
 Subroutine PRICEL returns:
 Original cell was already a primitive cell.
 

 Routine SETGRP: Setting up the symmetry group for a 
 hexagonal supercell.


 Subroutine GETGRP returns: Found  2 space group operations
 (whereof  2 operations were pure point group operations)
 out of a pool of 24 trial point group operations.


The static configuration has the point symmetry C_2 .


Analysis of symmetry for dynamics (positions and initial velocities):
=====================================================================
 Subroutine PRICEL returns:
 Original cell was already a primitive cell.
 

 Routine SETGRP: Setting up the symmetry group for a 
 hexagonal supercell.


 Subroutine GETGRP returns: Found  2 space group operations
 (whereof  2 operations were pure point group operations)
 out of a pool of 24 trial point group operations.


The dynamic configuration has the point symmetry C_2 .


Analysis of structural, dynamic, and magnetic symmetry:
=====================================================================
 Subroutine PRICEL returns:
 Original cell was already a primitive cell.
 

 Routine SETGRP: Setting up the symmetry group for a 
 hexagonal supercell.


 Subroutine GETGRP returns: Found  2 space group operations
 (whereof  2 operations were pure point group operations)
 out of a pool of 24 trial point group operations.


The magnetic configuration has the point symmetry C_2 .


 Subroutine INISYM returns: Found  2 space group operations
 (whereof  2 operations are pure point group operations),
 and found     1 'primitive' translations



 KPOINTS: Automatic mesh                          

Automatic generation of k-mesh.
Space group operators:
 irot       det(A)        alpha          n_x          n_y          n_z        tau_x        tau_y        tau_z
    1     1.000000     0.000000     1.000000     0.000000     0.000000     0.000000     0.000000     0.000000
    2     1.000000   180.000000     1.000000     0.000000     0.000000     0.000000     0.000000     0.000000
 
 Subroutine IBZKPT returns following result:
 ===========================================
 
 Found     24 irreducible k-points:
 
 Following reciprocal coordinates:
            Coordinates               Weight
  0.000000  0.000000  0.000000      1.000000
  0.250000  0.000000  0.000000      4.000000
  0.500000  0.000000  0.000000      2.000000
  0.000000  0.250000  0.000000      2.000000
  0.250000  0.250000  0.000000      4.000000
  0.500000  0.250000  0.000000      2.000000
  0.000000  0.500000  0.000000      1.000000
  0.000000  0.000000  0.250000      2.000000
  0.250000  0.000000  0.250000      4.000000
  0.500000  0.000000  0.250000      4.000000
 -0.250000  0.000000  0.250000      4.000000
  0.000000  0.250000  0.250000      2.000000
  0.250000  0.250000  0.250000      4.000000
  0.500000  0.250000  0.250000      4.000000
  0.000000  0.500000  0.250000      2.000000
  0.250000  0.500000  0.250000      4.000000
  0.000000 -0.250000  0.250000      2.000000
  0.000000  0.000000  0.500000      1.000000
  0.250000  0.000000  0.500000      4.000000
  0.500000  0.000000  0.500000      2.000000
  0.000000  0.250000  0.500000      2.000000
  0.250000  0.250000  0.500000      4.000000
  0.500000  0.250000  0.500000      2.000000
  0.000000  0.500000  0.500000      1.000000
 
 Following cartesian coordinates:
            Coordinates               Weight
  0.000000  0.000000  0.000000      1.000000
  0.022727  0.013121  0.000000      4.000000
  0.045454  0.026243  0.000000      2.000000
  0.000000  0.026243  0.000000      2.000000
  0.022727  0.039364  0.000000      4.000000
  0.045454  0.052485  0.000000      2.000000
  0.000000  0.052485  0.000000      1.000000
  0.000000  0.000000  0.022696      2.000000
  0.022727  0.013121  0.022696      4.000000
  0.045454  0.026243  0.022696      4.000000
 -0.022727 -0.013121  0.022696      4.000000
  0.000000  0.026243  0.022696      2.000000
  0.022727  0.039364  0.022696      4.000000
  0.045454  0.052485  0.022696      4.000000
  0.000000  0.052485  0.022696      2.000000
  0.022727  0.065607  0.022696      4.000000
  0.000000 -0.026243  0.022696      2.000000
  0.000000  0.000000  0.045392      1.000000
  0.022727  0.013121  0.045392      4.000000
  0.045454  0.026243  0.045392      2.000000
  0.000000  0.026243  0.045392      2.000000
  0.022727  0.039364  0.045392      4.000000
  0.045454  0.052485  0.045392      2.000000
  0.000000  0.052485  0.045392      1.000000
 


--------------------------------------------------------------------------------------------------------




 Dimension of arrays:
   k-points           NKPTS =     24   k-points in BZ     NKDIM =     24   number of bands    NBANDS=    300
   number of dos      NEDOS =    301   number of ions     NIONS =     72
   non local maximal  LDIM  =      6   non local SUM 2l+1 LMDIM =     18
   total plane-waves  NPLWV = 343000
   max r-space proj   IRMAX =   6047   max aug-charges    IRDMAX=  98554
   dimension x,y,z NGX =    70 NGY =   70 NGZ =   70
   dimension x,y,z NGXF=   140 NGYF=  140 NGZF=  140
   support grid    NGXF=   280 NGYF=  280 NGZF=  280
   ions per type =              36  36
 NGX,Y,Z   is equivalent  to a cutoff of  10.58, 10.58, 10.56 a.u.
 NGXF,Y,Z  is equivalent  to a cutoff of  21.16, 21.16, 21.13 a.u.


 I would recommend the setting:
   dimension x,y,z NGX =    64 NGY =   64 NGZ =   64
 SYSTEM =  MnAs hex                                
 POSCAR =  For VASP. System=    MnAs_hex           

 Startparameter for this run:
   NWRITE =      2    write-flag & timer
   PREC   = accura    normal or accurate (medium, high low for compatibility)
   ISTART =      0    job   : 0-new  1-cont  2-samecut
   ICHARG =      2    charge: 1-file 2-atom 10-const
   ISPIN  =      2    spin polarized calculation?
   LNONCOLLINEAR =      F non collinear calculations
   LSORBIT =      F    spin-orbit coupling
   INIWAV =      1    electr: 0-lowe 1-rand  2-diag
   LASPH  =      F    aspherical Exc in radial PAW
   METAGGA=      F    non-selfconsistent MetaGGA calc.

 Electronic Relaxation 1
   ENCUT  =  320.0 eV  23.52 Ry    4.85 a.u.  16.04 16.04 16.07*2*pi/ulx,y,z
   ENINI  =  320.0     initial cutoff
   ENAUG  =  500.7 eV  augmentation charge cutoff
   NELM   =    200;   NELMIN=  2; NELMDL=  0     # of ELM steps 
   EDIFF  = 0.1E-06   stopping-criterion for ELM
   LREAL  =      T    real-space projection
   NLSPLINE    = F    spline interpolate recip. space projectors
   LCOMPAT=      F    compatible to vasp.4.4
   GGA_COMPAT  = T    GGA compatible to vasp.4.4-vasp.4.6
   LMAXPAW     = -100 max onsite density
   LMAXMIX     =    2 max onsite mixed and CHGCAR
   VOSKOWN=      0    Vosko Wilk Nusair interpolation
   ROPT   =    0.00000   0.00000
 Ionic relaxation
   EDIFFG = 0.1E-05   stopping-criterion for IOM
   NSW    =      0    number of steps for IOM
   NBLOCK =      1;   KBLOCK =      1    inner block; outer block 
   IBRION =     -1    ionic relax: 0-MD 1-quasi-New 2-CG
   NFREE  =      1    steps in history (QN), initial steepest desc. (CG)
   ISIF   =      6    stress and relaxation
   IWAVPR =     10    prediction:  0-non 1-charg 2-wave 3-comb
   ISYM   =      2    0-nonsym 1-usesym 2-fastsym
   LCORR  =      T    Harris-Foulkes like correction to forces

   POTIM  = 0.5000    time-step for ionic-motion
   TEIN   =    0.0    initial temperature
   TEBEG  =    0.0;   TEEND  =   0.0 temperature during run
   SMASS  =  -3.00    Nose mass-parameter (am)
   estimated Nose-frequenzy (Omega)   =  0.10E-29 period in steps =****** mass=  -0.277E-26a.u.
   SCALEE = 1.0000    scale energy and forces
   NPACO  =    256;   APACO  = 16.0  distance and # of slots for P.C.
   PSTRESS=    0.0 pullay stress

  Mass of Ions in am
   POMASS =  54.94 74.92
  Ionic Valenz
   ZVAL   =   7.00  5.00
  Atomic Wigner-Seitz radii
   RWIGS  =  -1.00 -1.00
  virtual crystal weights 
   VCA    =   1.00  1.00
   NELECT =     432.0000    total number of electrons
   NUPDOWN=      -1.0000    fix difference up-down

 DOS related values:
   EMIN   =  10.00;   EMAX   =-10.00  energy-range for DOS
   EFERMI =   0.00
   ISMEAR =     1;   SIGMA  =   0.20  broadening in eV -4-tet -1-fermi 0-gaus

 Electronic relaxation 2 (details)
   IALGO  =     38    algorithm
   LDIAG  =      T    sub-space diagonalisation (order eigenvalues)
   LSUBROT=      F    optimize rotation matrix (better conditioning)
   TURBO    =      0    0=normal 1=particle mesh
   IRESTART =      0    0=no restart 2=restart with 2 vectors
   NREBOOT  =      0    no. of reboots
   NMIN     =      0    reboot dimension
   EREF     =   0.00    reference energy to select bands
   IMIX   =      4    mixing-type and parameters
     AMIX     =   0.40;   BMIX     =  1.00
     AMIX_MAG =   1.60;   BMIX_MAG =  1.00
     AMIN     =   0.10
     WC   =   100.;   INIMIX=   1;  MIXPRE=   1;  MAXMIX= -45

 Intra band minimization:
   WEIMIN = 0.0000     energy-eigenvalue tresh-hold
   EBREAK =  0.83E-10  absolut break condition
   DEPER  =   0.30     relativ break condition  

   TIME   =   0.40     timestep for ELM

  volume/ion in A,a.u.               =      16.03       108.19
  Fermi-wavevector in a.u.,A,eV,Ry     =   1.179759  2.229421 18.937012  1.391831
  Thomas-Fermi vector in A             =   2.316064

 Write flags
   LWAVE  =      F    write WAVECAR
   LCHARG =      F    write CHGCAR
   LVTOT  =      F    write LOCPOT, total local potential
   LVHAR  =      F    write LOCPOT, Hartree potential only
   LELF   =      F    write electronic localiz. function (ELF)
   LORBIT =      0    0 simple, 1 ext, 2 COOP (PROOUT)


 Dipole corrections
   LMONO  =      F    monopole corrections only (constant potential shift)
   LDIPOL =      F    correct potential (dipole corrections)
   IDIPOL =      0    1-x, 2-y, 3-z, 4-all directions 
   EPSILON=  1.0000000 bulk dielectric constant

 Exchange correlation treatment:
   GGA     =    --    GGA type
   LEXCH   =     8    internal setting for exchange type
   VOSKOWN=      0    Vosko Wilk Nusair interpolation
   LHFCALC =     F    Hartree Fock is set to
   LHFONE  =     F    Hartree Fock one center treatment
   AEXX    =    0.0000 exact exchange contribution

 Linear response parameters
   LEPSILON=     F    determine dielectric tensor
   LRPA    =     F    only Hartree local field effects (RPA)
   LNABLA  =     F    use nabla operator in PAW spheres
   LVEL    =     F    velocity operator in full k-point grid
   LINTERFAST=   F  fast interpolation
   KINTER  =     0    interpolate to denser k-point grid
   CSHIFT  =0.1000    complex shift for real part using Kramers Kronig
   OMEGAMAX=  -1.0    maximum frequency
   DEG_THRESHOLD= 0.2000000E-02 threshold for treating states as degnerate
   RTIME   =    0.100 relaxation time in fs

 Orbital magnetization related:
   ORBITALMAG=     F  switch on orbital magnetization
   LCHIMAG   =     F  perturbation theory with respect to B field
   DQ        =  0.001000  dq finite difference perturbation B field



--------------------------------------------------------------------------------------------------------


 Static calculation
 charge density and potential will be updated during run
 spin polarized calculation
 Variant of blocked Davidson
 Davidson routine will perform the subspace rotation
 perform sub-space diagonalisation
    after iterative eigenvector-optimisation
 modified Broyden-mixing scheme, WC =      100.0
 initial mixing is a Kerker type mixing with AMIX =  0.4000 and BMIX =      1.0000
 Hartree-type preconditioning will be used
 using additional bands           84
 real space projection scheme for non local part
 use partial core corrections
 calculate Harris-corrections to forces   (improved forces if not selfconsistent)
 use gradient corrections 
 use of overlap-Matrix (Vanderbilt PP)
 Methfessel and Paxton  Order N= 1 SIGMA  =   0.20


--------------------------------------------------------------------------------------------------------


  energy-cutoff  :      320.00
  volume of cell :     1154.33
      direct lattice vectors                 reciprocal lattice vectors
    11.000217144  0.000000000  0.000000000     0.090907296  0.052485352 -0.000000000
    -5.500108572  9.526467494  0.000000000     0.000000000  0.104970704  0.000000000
     0.000000000  0.000000000 11.015273102     0.000000000 -0.000000000  0.090783042

  length of vectors
    11.000217144 11.000217144 11.015273102     0.104970704  0.104970704  0.090783042



 k-points in units of 2pi/SCALE and weight: Automatic mesh                          
   0.00000000  0.00000000  0.00000000       0.016
   0.02272682  0.01312134  0.00000000       0.062
   0.04545365  0.02624268  0.00000000       0.031
   0.00000000  0.02624268  0.00000000       0.031
   0.02272682  0.03936401  0.00000000       0.062
   0.04545365  0.05248535  0.00000000       0.031
   0.00000000  0.05248535  0.00000000       0.016
   0.00000000  0.00000000  0.02269576       0.031
   0.02272682  0.01312134  0.02269576       0.062
   0.04545365  0.02624268  0.02269576       0.062
  -0.02272682 -0.01312134  0.02269576       0.062
   0.00000000  0.02624268  0.02269576       0.031
   0.02272682  0.03936401  0.02269576       0.062
   0.04545365  0.05248535  0.02269576       0.062
   0.00000000  0.05248535  0.02269576       0.031
   0.02272682  0.06560669  0.02269576       0.062
   0.00000000 -0.02624268  0.02269576       0.031
   0.00000000  0.00000000  0.04539152       0.016
   0.02272682  0.01312134  0.04539152       0.062
   0.04545365  0.02624268  0.04539152       0.031
   0.00000000  0.02624268  0.04539152       0.031
   0.02272682  0.03936401  0.04539152       0.062
   0.04545365  0.05248535  0.04539152       0.031
   0.00000000  0.05248535  0.04539152       0.016

 k-points in reciprocal lattice and weights: Automatic mesh                          
   0.00000000  0.00000000  0.00000000       0.016
   0.25000000  0.00000000  0.00000000       0.062
   0.50000000  0.00000000  0.00000000       0.031
   0.00000000  0.25000000  0.00000000       0.031
   0.25000000  0.25000000  0.00000000       0.062
   0.50000000  0.25000000  0.00000000       0.031
   0.00000000  0.50000000  0.00000000       0.016
   0.00000000  0.00000000  0.25000000       0.031
   0.25000000  0.00000000  0.25000000       0.062
   0.50000000  0.00000000  0.25000000       0.062
  -0.25000000  0.00000000  0.25000000       0.062
   0.00000000  0.25000000  0.25000000       0.031
   0.25000000  0.25000000  0.25000000       0.062
   0.50000000  0.25000000  0.25000000       0.062
   0.00000000  0.50000000  0.25000000       0.031
   0.25000000  0.50000000  0.25000000       0.062
   0.00000000 -0.25000000  0.25000000       0.031
   0.00000000  0.00000000  0.50000000       0.016
   0.25000000  0.00000000  0.50000000       0.062
   0.50000000  0.00000000  0.50000000       0.031
   0.00000000  0.25000000  0.50000000       0.031
   0.25000000  0.25000000  0.50000000       0.062
   0.50000000  0.25000000  0.50000000       0.031
   0.00000000  0.50000000  0.50000000       0.016

 position of ions in fractional coordinates (direct lattice) 
   0.66666667  0.66666667  0.00000000
   0.00000000  0.66666667  0.00000000
   0.33333333  0.66666667  0.00000000
   0.66666667  0.00000000  0.00000000
   0.01500000  0.00000000  0.00000000
   0.33333333  0.00000000  0.00000000
   0.66666667  0.33333333  0.00000000
   0.00000000  0.33333333  0.00000000
   0.33333333  0.33333333  0.00000000
   0.66666667  0.66666667  0.50000000
   0.00000000  0.66666667  0.50000000
   0.33333333  0.66666667  0.50000000
   0.66666667  0.00000000  0.50000000
   0.00000000  0.00000000  0.50000000
   0.33333333  0.00000000  0.50000000
   0.66666667  0.33333333  0.50000000
   0.00000000  0.33333333  0.50000000
   0.33333333  0.33333333  0.50000000
   0.66666667  0.66666667  0.75000000
   0.00000000  0.66666667  0.75000000
   0.33333333  0.66666667  0.75000000
   0.66666667  0.00000000  0.75000000
   0.00000000  0.00000000  0.75000000
   0.33333333  0.00000000  0.75000000
   0.66666667  0.33333333  0.75000000
   0.00000000  0.33333333  0.75000000
   0.33333333  0.33333333  0.75000000
   0.66666667  0.66666667  0.25000000
   0.00000000  0.66666667  0.25000000
   0.33333333  0.66666667  0.25000000
   0.66666667  0.00000000  0.25000000
   0.00000000  0.00000000  0.25000000
   0.33333333  0.00000000  0.25000000
   0.66666667  0.33333333  0.25000000
   0.00000000  0.33333333  0.25000000
   0.33333333  0.33333333  0.25000000
   0.77777778  0.55555556  0.62500000
   0.11111111  0.55555556  0.62500000
   0.44444444  0.55555556  0.62500000
   0.77777778  0.88888889  0.62500000
   0.11111111  0.88888889  0.62500000
   0.44444444  0.88888889  0.62500000
   0.77777778  0.22222222  0.62500000
   0.11111111  0.22222222  0.62500000
   0.44444444  0.22222222  0.62500000
   0.77777778  0.55555556  0.12500000
   0.11111111  0.55555556  0.12500000
   0.44444444  0.55555556  0.12500000
   0.77777778  0.88888889  0.12500000
   0.11111111  0.88888889  0.12500000
   0.44444444  0.88888889  0.12500000
   0.77777778  0.22222222  0.12500000
   0.11111111  0.22222222  0.12500000
   0.44444444  0.22222222  0.12500000
   0.55555556  0.77777778  0.87500000
   0.88888889  0.77777778  0.87500000
   0.22222222  0.77777778  0.87500000
   0.55555556  0.11111111  0.87500000
   0.88888889  0.11111111  0.87500000
   0.22222222  0.11111111  0.87500000
   0.55555556  0.44444444  0.87500000
   0.88888889  0.44444444  0.87500000
   0.22222222  0.44444444  0.87500000
   0.55555556  0.77777778  0.37500000
   0.88888889  0.77777778  0.37500000
   0.22222222  0.77777778  0.37500000
   0.55555556  0.11111111  0.37500000
   0.88888889  0.11111111  0.37500000
   0.22222222  0.11111111  0.37500000
   0.55555556  0.44444444  0.37500000
   0.88888889  0.44444444  0.37500000
   0.22222222  0.44444444  0.37500000

 position of ions in cartesian coordinates  (Angst):
   3.66673905  6.35097833  0.00000000
  -3.66673905  6.35097833  0.00000000
  -0.00000000  6.35097833  0.00000000
   7.33347810  0.00000000  0.00000000
   0.16500326  0.00000000  0.00000000
   3.66673905  0.00000000  0.00000000
   5.50010857  3.17548916  0.00000000
  -1.83336952  3.17548916  0.00000000
   1.83336952  3.17548916  0.00000000
   3.66673905  6.35097833  5.50763655
  -3.66673905  6.35097833  5.50763655
  -0.00000000  6.35097833  5.50763655
   7.33347810  0.00000000  5.50763655
   0.00000000  0.00000000  5.50763655
   3.66673905  0.00000000  5.50763655
   5.50010857  3.17548916  5.50763655
  -1.83336952  3.17548916  5.50763655
   1.83336952  3.17548916  5.50763655
   3.66673905  6.35097833  8.26145483
  -3.66673905  6.35097833  8.26145483
  -0.00000000  6.35097833  8.26145483
   7.33347810  0.00000000  8.26145483
   0.00000000  0.00000000  8.26145483
   3.66673905  0.00000000  8.26145483
   5.50010857  3.17548916  8.26145483
  -1.83336952  3.17548916  8.26145483
   1.83336952  3.17548916  8.26145483
   3.66673905  6.35097833  2.75381828
  -3.66673905  6.35097833  2.75381828
  -0.00000000  6.35097833  2.75381828
   7.33347810  0.00000000  2.75381828
   0.00000000  0.00000000  2.75381828
   3.66673905  0.00000000  2.75381828
   5.50010857  3.17548916  2.75381828
  -1.83336952  3.17548916  2.75381828
   1.83336952  3.17548916  2.75381828
   5.50010857  5.29248194  6.88454569
  -1.83336952  5.29248194  6.88454569
   1.83336952  5.29248194  6.88454569
   3.66673905  8.46797111  6.88454569
  -3.66673905  8.46797111  6.88454569
  -0.00000000  8.46797111  6.88454569
   7.33347810  2.11699278  6.88454569
  -0.00000000  2.11699278  6.88454569
   3.66673905  2.11699278  6.88454569
   5.50010857  5.29248194  1.37690914
  -1.83336952  5.29248194  1.37690914
   1.83336952  5.29248194  1.37690914
   3.66673905  8.46797111  1.37690914
  -3.66673905  8.46797111  1.37690914
  -0.00000000  8.46797111  1.37690914
   7.33347810  2.11699278  1.37690914
  -0.00000000  2.11699278  1.37690914
   3.66673905  2.11699278  1.37690914
   1.83336952  7.40947472  9.63836396
   5.50010857  7.40947472  9.63836396
  -1.83336952  7.40947472  9.63836396
   5.50010857  1.05849639  9.63836396
   9.16684762  1.05849639  9.63836396
   1.83336952  1.05849639  9.63836396
   3.66673905  4.23398555  9.63836396
   7.33347810  4.23398555  9.63836396
  -0.00000000  4.23398555  9.63836396
   1.83336952  7.40947472  4.13072741
   5.50010857  7.40947472  4.13072741
  -1.83336952  7.40947472  4.13072741
   5.50010857  1.05849639  4.13072741
   9.16684762  1.05849639  4.13072741
   1.83336952  1.05849639  4.13072741
   3.66673905  4.23398555  4.13072741
   7.33347810  4.23398555  4.13072741
  -0.00000000  4.23398555  4.13072741



--------------------------------------------------------------------------------------------------------


 k-point  1 :   0.0000 0.0000 0.0000  plane waves:   14931
 k-point  2 :   0.2500 0.0000 0.0000  plane waves:   14982
 k-point  3 :   0.5000 0.0000 0.0000  plane waves:   15008
 k-point  4 :   0.0000 0.2500 0.0000  plane waves:   14982
 k-point  5 :   0.2500 0.2500 0.0000  plane waves:   14994
 k-point  6 :   0.5000 0.2500 0.0000  plane waves:   14994
 k-point  7 :   0.0000 0.5000 0.0000  plane waves:   15008
 k-point  8 :   0.0000 0.0000 0.2500  plane waves:   14990
 k-point  9 :   0.2500 0.0000 0.2500  plane waves:   15013
 k-point 10 :   0.5000 0.0000 0.2500  plane waves:   15002
 k-point 11 :  -0.2500 0.0000 0.2500  plane waves:   15013
 k-point 12 :   0.0000 0.2500 0.2500  plane waves:   15013
 k-point 13 :   0.2500 0.2500 0.2500  plane waves:   15003
 k-point 14 :   0.5000 0.2500 0.2500  plane waves:   15003
 k-point 15 :   0.0000 0.5000 0.2500  plane waves:   15002
 k-point 16 :   0.2500 0.5000 0.2500  plane waves:   15003
 k-point 17 :   0.0000-0.2500 0.2500  plane waves:   15013
 k-point 18 :   0.0000 0.0000 0.5000  plane waves:   14984
 k-point 19 :   0.2500 0.0000 0.5000  plane waves:   15008
 k-point 20 :   0.5000 0.0000 0.5000  plane waves:   15044
 k-point 21 :   0.0000 0.2500 0.5000  plane waves:   15008
 k-point 22 :   0.2500 0.2500 0.5000  plane waves:   15006
 k-point 23 :   0.5000 0.2500 0.5000  plane waves:   15006
 k-point 24 :   0.0000 0.5000 0.5000  plane waves:   15044

 maximum and minimum number of plane-waves per node :      3774     3707

 maximum number of plane-waves:     15044
 maximum index in each direction: 
   IXMAX=   16   IYMAX=   16   IZMAX=   16
   IXMIN=  -16   IYMIN=  -16   IZMIN=  -16

 NGX is ok and might be reduce to  66
 NGY is ok and might be reduce to  66
 NGZ is ok and might be reduce to  66

 real space projection operators:
  total allocation   :      41362.31 KBytes
  max/ min on nodes  :      10760.84       9933.36


 parallel 3D FFT for wavefunctions:
    minimum data exchange during FFTs selected (reduces bandwidth)
 parallel 3D FFT for charge:
    minimum data exchange during FFTs selected (reduces bandwidth)


 total amount of memory used by VASP on root node   334139. kBytes
========================================================================

   base      :      30000. kBytes
   nonlr-proj:      20520. kBytes
   fftplans  :      28296. kBytes
   grid      :      21369. kBytes
   one-center:        559. kBytes
   wavefun   :     233395. kBytes

     INWAV:  cpu time    0.0000: real time    0.0002
 Broyden mixing: mesh for mixing (old mesh)
   NGX = 33   NGY = 33   NGZ = 33
  (NGX  =140   NGY  =140   NGZ  =140)
  gives a total of  35937 points

 initial charge density was supplied:
 charge density of overlapping atoms calculated
 number of electron     432.0000000 magnetization      36.0000000
 keeping initial charge density in first step


--------------------------------------------------------------------------------------------------------


 Maximum index for non-local projection operator         1589
 Maximum index for augmentation-charges         6365 (set IRDMAX)


--------------------------------------------------------------------------------------------------------


 First call to EWALD:  gamma=   0.169
 Maximum number of real-space cells 3x 3x 3
 Maximum number of reciprocal cells 3x 3x 3

 FEWALD executed in parallel
    FEWALD:  cpu time    0.0400: real time    0.0412


----------------------------------------- Iteration    1(   1)  ---------------------------------------


    POTLOK:  cpu time    1.1440: real time    1.1453
    SETDIJ:  cpu time    1.3160: real time    1.3215
     EDDAV:  cpu time  784.0080: real time  786.8055
       DOS:  cpu time    0.0440: real time    0.0445
    --------------------------------------------
      LOOP:  cpu time  786.5160: real time  789.3258

 eigenvalue-minimisations  : 29096
 total energy-change (2. order) : 0.3249696E+04  (-0.1146755E+05)
 number of electron     432.0000000 magnetization      36.0000000
 augmentation part      432.0000000 magnetization      36.0000000

 Free energy of the ion-electron system (eV)
  ---------------------------------------------------
  alpha Z        PSCENC =      1700.89082154
  Ewald energy   TEWEN  =    -21121.38605176
  -Hartree energ DENC   =     -3903.73872574
  -exchange      EXHF   =         0.00000000
  -V(xc)+E(xc)   XCENC  =      -848.09773372
  PAW double counting   =     14295.91323732   -12980.49464661
  entropy T*S    EENTRO =        -0.00100399
  eigenvalues    EBANDS =      4977.40103273
  atomic energy  EATOM  =     21129.20924906
  Solvation  Ediel_sol  =         0.00000000
  ---------------------------------------------------
  free energy    TOTEN  =      3249.69617884 eV

  energy without entropy =     3249.69718283  energy(sigma->0) =     3249.69651351


--------------------------------------------------------------------------------------------------------




----------------------------------------- Iteration    1(   2)  ---------------------------------------


     EDDAV:  cpu time  731.8960: real time  734.4849
       DOS:  cpu time    0.0480: real time    0.0480
    --------------------------------------------
      LOOP:  cpu time  732.0240: real time  734.6268

 eigenvalue-minimisations  : 28800
 total energy-change (2. order) :-0.3333671E+04  (-0.3202239E+04)
 number of electron     432.0000000 magnetization      36.0000000
 augmentation part      432.0000000 magnetization      36.0000000

 Free energy of the ion-electron system (eV)
  ---------------------------------------------------
  alpha Z        PSCENC =      1700.89082154
  Ewald energy   TEWEN  =    -21121.38605176
  -Hartree energ DENC   =     -3903.73872574
  -exchange      EXHF   =         0.00000000
  -V(xc)+E(xc)   XCENC  =      -848.09773372
  PAW double counting   =     14295.91323732   -12980.49464661
  entropy T*S    EENTRO =        -0.00355722
  eigenvalues    EBANDS =      1643.73289192
  atomic energy  EATOM  =     21129.20924906
  Solvation  Ediel_sol  =         0.00000000
  ---------------------------------------------------
  free energy    TOTEN  =       -83.97451520 eV

  energy without entropy =      -83.97095798  energy(sigma->0) =      -83.97332946


--------------------------------------------------------------------------------------------------------




----------------------------------------- Iteration    1(   3)  ---------------------------------------


     EDDAV:  cpu time  998.8920: real time 1002.4244
       DOS:  cpu time    0.0480: real time    0.0500
    --------------------------------------------
      LOOP:  cpu time  998.9840: real time 1002.5295

 eigenvalue-minimisations  : 42552
 total energy-change (2. order) :-0.4183110E+03  (-0.3749905E+03)
 number of electron     432.0000000 magnetization      36.0000000
 augmentation part      432.0000000 magnetization      36.0000000

 Free energy of the ion-electron system (eV)
  ---------------------------------------------------
  alpha Z        PSCENC =      1700.89082154
  Ewald energy   TEWEN  =    -21121.38605176
  -Hartree energ DENC   =     -3903.73872574
  -exchange      EXHF   =         0.00000000
  -V(xc)+E(xc)   XCENC  =      -848.09773372
  PAW double counting   =     14295.91323732   -12980.49464661
  entropy T*S    EENTRO =        -0.06863933
  eigenvalues    EBANDS =      1225.48694489
  atomic energy  EATOM  =     21129.20924906
  Solvation  Ediel_sol  =         0.00000000
  ---------------------------------------------------
  free energy    TOTEN  =      -502.28554434 eV

  energy without entropy =     -502.21690501  energy(sigma->0) =     -502.26266457


--------------------------------------------------------------------------------------------------------




----------------------------------------- Iteration    1(   4)  ---------------------------------------


     EDDAV:  cpu time 1072.1240: real time 1076.0077
       DOS:  cpu time    0.0520: real time    0.0550
    --------------------------------------------
      LOOP:  cpu time 1072.2200: real time 1076.1330

 eigenvalue-minimisations  : 46328
 total energy-change (2. order) :-0.4174143E+02  (-0.3696966E+02)
 number of electron     432.0000000 magnetization      36.0000000
 augmentation part      432.0000000 magnetization      36.0000000

 Free energy of the ion-electron system (eV)
  ---------------------------------------------------
  alpha Z        PSCENC =      1700.89082154
  Ewald energy   TEWEN  =    -21121.38605176
  -Hartree energ DENC   =     -3903.73872574
  -exchange      EXHF   =         0.00000000
  -V(xc)+E(xc)   XCENC  =      -848.09773372
  PAW double counting   =     14295.91323732   -12980.49464661
  entropy T*S    EENTRO =        -0.05718646
  eigenvalues    EBANDS =      1183.73406006
  atomic energy  EATOM  =     21129.20924906
  Solvation  Ediel_sol  =         0.00000000
  ---------------------------------------------------
  free energy    TOTEN  =      -544.02697631 eV

  energy without entropy =     -543.96978985  energy(sigma->0) =     -544.00791415


--------------------------------------------------------------------------------------------------------




----------------------------------------- Iteration    1(   5)  ---------------------------------------


     EDDAV:  cpu time 1120.9000: real time 1125.0626
       DOS:  cpu time    0.0600: real time    0.0565
    CHARGE:  cpu time   42.8640: real time   43.0228
    MIXING:  cpu time    0.0560: real time    0.0547
    --------------------------------------------
      LOOP:  cpu time 1163.9360: real time 1168.2742

 eigenvalue-minimisations  : 48792
 total energy-change (2. order) :-0.2866809E+01  (-0.2705490E+01)
 number of electron     432.0000001 magnetization      39.8105180
 augmentation part       60.2128088 magnetization      21.5442120

 Broyden mixing:
  rms(total) = 0.61284E+01    rms(broyden)= 0.61268E+01
  rms(prec ) = 0.79567E+01
  weight for this iteration     100.00

 Free energy of the ion-electron system (eV)
  ---------------------------------------------------
  alpha Z        PSCENC =      1700.89082154
  Ewald energy   TEWEN  =    -21121.38605176
  -Hartree energ DENC   =     -3903.73872574
  -exchange      EXHF   =         0.00000000
  -V(xc)+E(xc)   XCENC  =      -848.09773372
  PAW double counting   =     14295.91323732   -12980.49464661
  entropy T*S    EENTRO =        -0.05187860
  eigenvalues    EBANDS =      1180.86194294
  atomic energy  EATOM  =     21129.20924906
  Solvation  Ediel_sol  =         0.00000000
  ---------------------------------------------------
  free energy    TOTEN  =      -546.89378556 eV

  energy without entropy =     -546.84190696  energy(sigma->0) =     -546.87649269


--------------------------------------------------------------------------------------------------------




----------------------------------------- Iteration    1(   6)  ---------------------------------------


    POTLOK:  cpu time    1.4640: real time    1.4651
    SETDIJ:  cpu time    1.8080: real time    1.8173
     EDDAV:  cpu time 1026.5000: real time 1030.3610
       DOS:  cpu time    0.0560: real time    0.0563
    CHARGE:  cpu time   43.1560: real time   43.3184
    MIXING:  cpu time    0.0720: real time    0.0705
    --------------------------------------------
      LOOP:  cpu time 1073.0560: real time 1077.1005

 eigenvalue-minimisations  : 43696
 total energy-change (2. order) :-0.6598949E+02  (-0.1401782E+03)
 number of electron     432.0000004 magnetization      39.6158037
 augmentation part      144.3878712 magnetization      33.8247258

 Broyden mixing:
  rms(total) = 0.93028E+01    rms(broyden)= 0.93015E+01
  rms(prec ) = 0.12529E+02
  weight for this iteration     100.00

 eigenvalues of (default mixing * dielectric matrix)
  average eigenvalue GAMMA=   0.4128
  0.4128

 Free energy of the ion-electron system (eV)
  ---------------------------------------------------
  alpha Z        PSCENC =      1700.89082154
  Ewald energy   TEWEN  =    -21121.38605176
  -Hartree energ DENC   =     -3181.76744455
  -exchange      EXHF   =         0.00000000
  -V(xc)+E(xc)   XCENC  =      -859.97895967
  PAW double counting   =     13314.23088361   -11917.89434671
  entropy T*S    EENTRO =        -0.22588307
  eigenvalues    EBANDS =       324.03845155
  atomic energy  EATOM  =     21129.20924906
  Solvation  Ediel_sol  =         0.00000000
  ---------------------------------------------------
  free energy    TOTEN  =      -612.88328000 eV

  energy without entropy =     -612.65739693  energy(sigma->0) =     -612.80798564


--------------------------------------------------------------------------------------------------------




----------------------------------------- Iteration    1(   7)  ---------------------------------------


    POTLOK:  cpu time    1.2720: real time    1.4529
    SETDIJ:  cpu time    1.8040: real time    1.8123
     EDDAV:  cpu time 1061.1320: real time 1065.0795
       DOS:  cpu time    0.0600: real time    0.0588
    CHARGE:  cpu time   42.7520: real time   42.9035
    MIXING:  cpu time    0.0760: real time    0.0771
    --------------------------------------------
      LOOP:  cpu time 1107.0960: real time 1111.4167

 eigenvalue-minimisations  : 45432
 total energy-change (2. order) : 0.1136059E+03  (-0.6125035E+02)
 number of electron     432.0000002 magnetization      40.2878879
 augmentation part       86.7701068 magnetization      20.3364804

 Broyden mixing:
  rms(total) = 0.36364E+01    rms(broyden)= 0.36346E+01
  rms(prec ) = 0.47090E+01
  weight for this iteration     100.00

 eigenvalues of (default mixing * dielectric matrix)
  average eigenvalue GAMMA=   0.2392
  0.4015  0.0769

 Free energy of the ion-electron system (eV)
  ---------------------------------------------------
  alpha Z        PSCENC =      1700.89082154
  Ewald energy   TEWEN  =    -21121.38605176
  -Hartree energ DENC   =     -3617.99549423
  -exchange      EXHF   =         0.00000000
  -V(xc)+E(xc)   XCENC  =      -845.79460596
  PAW double counting   =     14401.56452429   -13081.80616517
  entropy T*S    EENTRO =         0.02212409
  eigenvalues    EBANDS =       936.01824024
  atomic energy  EATOM  =     21129.20924906
  Solvation  Ediel_sol  =         0.00000000
  ---------------------------------------------------
  free energy    TOTEN  =      -499.27735790 eV

  energy without entropy =     -499.29948199  energy(sigma->0) =     -499.28473260


--------------------------------------------------------------------------------------------------------




----------------------------------------- Iteration    1(   8)  ---------------------------------------


    POTLOK:  cpu time    1.4480: real time    1.4660
    SETDIJ:  cpu time    1.7760: real time    1.7811
     EDDAV:  cpu time 1008.0640: real time 1011.5900
       DOS:  cpu time    0.0520: real time    0.0535
    CHARGE:  cpu time   43.3560: real time   43.5143
    MIXING:  cpu time    0.0800: real time    0.0790
    --------------------------------------------
      LOOP:  cpu time 1054.7800: real time 1058.5083

 eigenvalue-minimisations  : 41840
 total energy-change (2. order) :-0.2341626E+01  (-0.5510425E+01)
 number of electron     432.0000002 magnetization      38.8755656
 augmentation part       84.4619629 magnetization      17.7790689

 Broyden mixing:
  rms(total) = 0.27893E+01    rms(broyden)= 0.27892E+01
  rms(prec ) = 0.32183E+01
  weight for this iteration     100.00

 eigenvalues of (default mixing * dielectric matrix)
  average eigenvalue GAMMA=   0.4435
  0.8525  0.3710  0.1070

 Free energy of the ion-electron system (eV)
  ---------------------------------------------------
  alpha Z        PSCENC =      1700.89082154
  Ewald energy   TEWEN  =    -21121.38605176
  -Hartree energ DENC   =     -3616.01733417
  -exchange      EXHF   =         0.00000000
  -V(xc)+E(xc)   XCENC  =      -844.87023463
  PAW double counting   =     14420.12995790   -13101.56188066
  entropy T*S    EENTRO =         0.03601180
  eigenvalues    EBANDS =       931.95047747
  atomic energy  EATOM  =     21129.20924906
  Solvation  Ediel_sol  =         0.00000000
  ---------------------------------------------------
  free energy    TOTEN  =      -501.61898346 eV

  energy without entropy =     -501.65499526  energy(sigma->0) =     -501.63098739


--------------------------------------------------------------------------------------------------------




----------------------------------------- Iteration    1(   9)  ---------------------------------------


    POTLOK:  cpu time    1.6200: real time    1.6233
    SETDIJ:  cpu time    1.8960: real time    1.9013
     EDDAV:  cpu time 1142.2560: real time 1146.0536
       DOS:  cpu time    0.0600: real time    0.0590
    CHARGE:  cpu time   42.4520: real time   42.5655
    MIXING:  cpu time    0.0840: real time    0.0830
    --------------------------------------------
      LOOP:  cpu time 1188.3680: real time 1192.2917

 eigenvalue-minimisations  : 47956
 total energy-change (2. order) : 0.5996591E-01  (-0.2245753E+00)
 number of electron     432.0000002 magnetization      39.0531460
 augmentation part       83.5011174 magnetization      18.3342807

 Broyden mixing:
  rms(total) = 0.29462E+01    rms(broyden)= 0.29461E+01
  rms(prec ) = 0.34179E+01
  weight for this iteration     100.00

 eigenvalues of (default mixing * dielectric matrix)
  average eigenvalue GAMMA=   0.3572
  0.9225  0.3723  0.1057  0.0283

 Free energy of the ion-electron system (eV)
  ---------------------------------------------------
  alpha Z        PSCENC =      1700.89082154
  Ewald energy   TEWEN  =    -21121.38605176
  -Hartree energ DENC   =     -3622.82014617
  -exchange      EXHF   =         0.00000000
  -V(xc)+E(xc)   XCENC  =      -846.63491522
  PAW double counting   =     14395.04319041   -13075.31077527
  entropy T*S    EENTRO =         0.01044581
  eigenvalues    EBANDS =       939.43916406
  atomic energy  EATOM  =     21129.20924906
  Solvation  Ediel_sol  =         0.00000000
  ---------------------------------------------------
  free energy    TOTEN  =      -501.55901755 eV

  energy without entropy =     -501.56946336  energy(sigma->0) =     -501.56249949


--------------------------------------------------------------------------------------------------------




----------------------------------------- Iteration    1(  10)  ---------------------------------------


    POTLOK:  cpu time    1.6240: real time    1.6275
    SETDIJ:  cpu time    1.9800: real time    1.9850
     EDDAV:  cpu time 1063.1840: real time 1066.5238
       DOS:  cpu time    0.0560: real time    0.0571
    CHARGE:  cpu time   43.1680: real time   43.3192
    MIXING:  cpu time    0.1160: real time    0.1166
    --------------------------------------------
      LOOP:  cpu time 1110.1280: real time 1113.6365

 eigenvalue-minimisations  : 43960
 total energy-change (2. order) :-0.1857738E+00  (-0.1355220E-01)
 number of electron     432.0000002 magnetization      53.6272439
 augmentation part       83.4787042 magnetization      32.8616233

 Broyden mixing:
  rms(total) = 0.29821E+01    rms(broyden)= 0.29821E+01
  rms(prec ) = 0.34899E+01
  weight for this iteration     100.00

 eigenvalues of (default mixing * dielectric matrix)
  average eigenvalue GAMMA=   0.5815
  1.1718  1.1718  0.3490  0.1169  0.0979

 Free energy of the ion-electron system (eV)
  ---------------------------------------------------
  alpha Z        PSCENC =      1700.89082154
  Ewald energy   TEWEN  =    -21121.38605176
  -Hartree energ DENC   =     -3622.31194801
  -exchange      EXHF   =         0.00000000
  -V(xc)+E(xc)   XCENC  =      -846.46051276
  PAW double counting   =     14397.51713786   -13077.93830954
  entropy T*S    EENTRO =         0.01241430
  eigenvalues    EBANDS =       938.72240796
  atomic energy  EATOM  =     21129.20924906
  Solvation  Ediel_sol  =         0.00000000
  ---------------------------------------------------
  free energy    TOTEN  =      -501.74479137 eV

  energy without entropy =     -501.75720566  energy(sigma->0) =     -501.74892947


--------------------------------------------------------------------------------------------------------




----------------------------------------- Iteration    1(  11)  ---------------------------------------


    POTLOK:  cpu time    1.6440: real time    1.6490
    SETDIJ:  cpu time    1.9440: real time    1.9473
     EDDAV:  cpu time 1218.7920: real time 1223.1674
       DOS:  cpu time    0.0560: real time    0.0561
    CHARGE:  cpu time   46.3480: real time   46.4980
    MIXING:  cpu time    0.0680: real time    0.0707
    --------------------------------------------
      LOOP:  cpu time 1268.8520: real time 1273.4051

 eigenvalue-minimisations  : 51736
 total energy-change (2. order) :-0.6270243E+01  (-0.1342027E+01)
 number of electron     432.0000002 magnetization      60.8503006
 augmentation part       85.8413777 magnetization      37.5485715

 Broyden mixing:
  rms(total) = 0.32925E+01    rms(broyden)= 0.32921E+01
  rms(prec ) = 0.43068E+01
  weight for this iteration     100.00

 eigenvalues of (default mixing * dielectric matrix)
  average eigenvalue GAMMA=   0.5624
  1.3391  1.3391  0.3493  0.1430  0.1109  0.0930

 Free energy of the ion-electron system (eV)
  ---------------------------------------------------
  alpha Z        PSCENC =      1700.89082154
  Ewald energy   TEWEN  =    -21121.38605176
  -Hartree energ DENC   =     -3610.61900206
  -exchange      EXHF   =         0.00000000
  -V(xc)+E(xc)   XCENC  =      -833.86450882
  PAW double counting   =     14530.26649077   -13216.78776943
  entropy T*S    EENTRO =         0.06875447
  eigenvalues    EBANDS =       914.20698176
  atomic energy  EATOM  =     21129.20924906
  Solvation  Ediel_sol  =         0.00000000
  ---------------------------------------------------
  free energy    TOTEN  =      -508.01503446 eV

  energy without entropy =     -508.08378894  energy(sigma->0) =     -508.03795262


--------------------------------------------------------------------------------------------------------




----------------------------------------- Iteration    1(  12)  ---------------------------------------


    POTLOK:  cpu time    1.6320: real time    1.6380
    SETDIJ:  cpu time    1.9640: real time    1.9683
     EDDAV:  cpu time 1322.8520: real time 1327.4255
       DOS:  cpu time    0.0560: real time    0.0542
    CHARGE:  cpu time   44.9360: real time   45.0875
    MIXING:  cpu time    0.0720: real time    0.0756
    --------------------------------------------
      LOOP:  cpu time 1371.5160: real time 1376.2555

 eigenvalue-minimisations  : 53440
 total energy-change (2. order) : 0.1898365E+01  (-0.9570110E+00)
 number of electron     432.0000002 magnetization      72.3064668
 augmentation part       86.6293509 magnetization      47.4935813

 Broyden mixing:
  rms(total) = 0.19745E+01    rms(broyden)= 0.19741E+01
  rms(prec ) = 0.21920E+01
  weight for this iteration     100.00

 eigenvalues of (default mixing * dielectric matrix)
  average eigenvalue GAMMA=   0.6164
  1.6536  1.6536  0.3713  0.2961  0.1358  0.1021  0.1021

 Free energy of the ion-electron system (eV)
  ---------------------------------------------------
  alpha Z        PSCENC =      1700.89082154
  Ewald energy   TEWEN  =    -21121.38605176
  -Hartree energ DENC   =     -3604.73895851
  -exchange      EXHF   =         0.00000000
  -V(xc)+E(xc)   XCENC  =      -826.23382127
  PAW double counting   =     14596.69322936   -13287.02284671
  entropy T*S    EENTRO =         0.06372230
  eigenvalues    EBANDS =       906.40798631
  atomic energy  EATOM  =     21129.20924906
  Solvation  Ediel_sol  =         0.00000000
  ---------------------------------------------------
  free energy    TOTEN  =      -506.11666968 eV

  energy without entropy =     -506.18039198  energy(sigma->0) =     -506.13791045


--------------------------------------------------------------------------------------------------------




----------------------------------------- Iteration    1(  13)  ---------------------------------------


    POTLOK:  cpu time    1.6200: real time    1.6257
    SETDIJ:  cpu time    1.9280: real time    1.9338
     EDDAV:  cpu time 1198.5640: real time 1202.9165
       DOS:  cpu time    0.0600: real time    0.0585
    CHARGE:  cpu time   45.1120: real time   45.2687
    MIXING:  cpu time    0.0640: real time    0.0630
    --------------------------------------------
      LOOP:  cpu time 1247.3520: real time 1251.8722

 eigenvalue-minimisations  : 49592
 total energy-change (2. order) :-0.2031294E+01  (-0.3855024E+00)
 number of electron     432.0000002 magnetization      79.1748999
 augmentation part       87.3171989 magnetization      53.0044857

 Broyden mixing:
  rms(total) = 0.14414E+01    rms(broyden)= 0.14412E+01
  rms(prec ) = 0.17060E+01
  weight for this iteration     100.00

 eigenvalues of (default mixing * dielectric matrix)
  average eigenvalue GAMMA=   0.6280
  1.7859  1.7859  0.3831  0.3831  0.3542  0.0964  0.1105  0.1251

 Free energy of the ion-electron system (eV)
  ---------------------------------------------------
  alpha Z        PSCENC =      1700.89082154
  Ewald energy   TEWEN  =    -21121.38605176
  -Hartree energ DENC   =     -3594.17075191
  -exchange      EXHF   =         0.00000000
  -V(xc)+E(xc)   XCENC  =      -812.40731916
  PAW double counting   =     14694.85891650   -13392.75254567
  entropy T*S    EENTRO =         0.03953081
  eigenvalues    EBANDS =       887.57018691
  atomic energy  EATOM  =     21129.20924906
  Solvation  Ediel_sol  =         0.00000000
  ---------------------------------------------------
  free energy    TOTEN  =      -508.14796368 eV

  energy without entropy =     -508.18749450  energy(sigma->0) =     -508.16114062


--------------------------------------------------------------------------------------------------------




----------------------------------------- Iteration    1(  14)  ---------------------------------------


    POTLOK:  cpu time    1.6200: real time    1.6225
    SETDIJ:  cpu time    1.9800: real time    1.9863
     EDDAV:  cpu time 1250.4440: real time 1254.8428
       DOS:  cpu time    0.0560: real time    0.0565
    CHARGE:  cpu time   46.2720: real time   46.4237
    MIXING:  cpu time    0.0560: real time    0.0582
    --------------------------------------------
      LOOP:  cpu time 1300.4280: real time 1304.9961

 eigenvalue-minimisations  : 51128
 total energy-change (2. order) :-0.7707136E+00  (-0.2980565E+00)
 number of electron     432.0000002 magnetization      84.5164438
 augmentation part       87.8532025 magnetization      57.7304694

 Broyden mixing:
  rms(total) = 0.11608E+01    rms(broyden)= 0.11606E+01
  rms(prec ) = 0.14701E+01
  weight for this iteration     100.00

 eigenvalues of (default mixing * dielectric matrix)
  average eigenvalue GAMMA=   0.6588
  1.8978  1.8978  0.6503  0.6503  0.3458  0.1557  0.0968  0.1243  0.1099

 Free energy of the ion-electron system (eV)
  ---------------------------------------------------
  alpha Z        PSCENC =      1700.89082154
  Ewald energy   TEWEN  =    -21121.38605176
  -Hartree energ DENC   =     -3584.63741984
  -exchange      EXHF   =         0.00000000
  -V(xc)+E(xc)   XCENC  =      -803.93942852
  PAW double counting   =     14748.79497285   -13451.72380111
  entropy T*S    EENTRO =         0.03590749
  eigenvalues    EBANDS =       873.83707305
  atomic energy  EATOM  =     21129.20924906
  Solvation  Ediel_sol  =         0.00000000
  ---------------------------------------------------
  free energy    TOTEN  =      -508.91867724 eV

  energy without entropy =     -508.95458473  energy(sigma->0) =     -508.93064640


--------------------------------------------------------------------------------------------------------




----------------------------------------- Iteration    1(  15)  ---------------------------------------


    POTLOK:  cpu time    1.6280: real time    1.6291
    SETDIJ:  cpu time    1.9720: real time    1.9779
     EDDAV:  cpu time 1179.9280: real time 1184.1327
       DOS:  cpu time    0.0520: real time    0.0526
    CHARGE:  cpu time   46.2200: real time   46.3738
    MIXING:  cpu time    0.1360: real time    0.1402
    --------------------------------------------
      LOOP:  cpu time 1229.9360: real time 1234.3145

 eigenvalue-minimisations  : 47480
 total energy-change (2. order) :-0.9421235E-01  (-0.1723633E+00)
 number of electron     432.0000002 magnetization      92.0944742
 augmentation part       88.8215829 magnetization      64.7744267

 Broyden mixing:
  rms(total) = 0.84766E+00    rms(broyden)= 0.84756E+00
  rms(prec ) = 0.95597E+00
  weight for this iteration     100.00

 eigenvalues of (default mixing * dielectric matrix)
  average eigenvalue GAMMA=   0.7376
  2.1258  2.1258  0.9030  0.9030  0.4860  0.3436  0.1559  0.0969  0.1265  0.1094

 Free energy of the ion-electron system (eV)
  ---------------------------------------------------
  alpha Z        PSCENC =      1700.89082154
  Ewald energy   TEWEN  =    -21121.38605176
  -Hartree energ DENC   =     -3562.82580048
  -exchange      EXHF   =         0.00000000
  -V(xc)+E(xc)   XCENC  =      -801.56985146
  PAW double counting   =     14778.49012466   -13486.36660176
  entropy T*S    EENTRO =         0.03719775
  eigenvalues    EBANDS =       854.50802287
  atomic energy  EATOM  =     21129.20924906
  Solvation  Ediel_sol  =         0.00000000
  ---------------------------------------------------
  free energy    TOTEN  =      -509.01288959 eV

  energy without entropy =     -509.05008734  energy(sigma->0) =     -509.02528884


--------------------------------------------------------------------------------------------------------




----------------------------------------- Iteration    1(  16)  ---------------------------------------


    POTLOK:  cpu time    1.6360: real time    1.6415
    SETDIJ:  cpu time    1.9600: real time    1.9647
     EDDAV:  cpu time 1238.5720: real time 1242.8515
       DOS:  cpu time    0.0560: real time    0.0562
    CHARGE:  cpu time   46.8480: real time   47.0017
    MIXING:  cpu time    0.0560: real time    0.0566
    --------------------------------------------
      LOOP:  cpu time 1289.1320: real time 1293.5783

 eigenvalue-minimisations  : 50344
 total energy-change (2. order) :-0.7295381E+00  (-0.1996823E+00)
 number of electron     432.0000002 magnetization      98.6725660
 augmentation part       89.5099034 magnetization      70.7158120

 Broyden mixing:
  rms(total) = 0.79151E+00    rms(broyden)= 0.79136E+00
  rms(prec ) = 0.10896E+01
  weight for this iteration     100.00

 eigenvalues of (default mixing * dielectric matrix)
  average eigenvalue GAMMA=   0.7250
  2.1742  2.1742  1.0229  1.0229  0.5236  0.3434  0.2257  0.1551  0.0969  0.1094
  0.1263

 Free energy of the ion-electron system (eV)
  ---------------------------------------------------
  alpha Z        PSCENC =      1700.89082154
  Ewald energy   TEWEN  =    -21121.38605176
  -Hartree energ DENC   =     -3542.12542800
  -exchange      EXHF   =         0.00000000
  -V(xc)+E(xc)   XCENC  =      -795.65440304
  PAW double counting   =     14823.32620698   -13538.65528264
  entropy T*S    EENTRO =         0.03488699
  eigenvalues    EBANDS =       834.61757324
  atomic energy  EATOM  =     21129.20924906
  Solvation  Ediel_sol  =         0.00000000
  ---------------------------------------------------
  free energy    TOTEN  =      -509.74242764 eV

  energy without entropy =     -509.77731463  energy(sigma->0) =     -509.75405664


--------------------------------------------------------------------------------------------------------




----------------------------------------- Iteration    1(  17)  ---------------------------------------


    POTLOK:  cpu time    1.6440: real time    1.6454
    SETDIJ:  cpu time    1.9520: real time    1.9573
     EDDAV:  cpu time 1210.3000: real time 1213.9758
       DOS:  cpu time    0.0560: real time    0.0553
    CHARGE:  cpu time   47.0920: real time   47.2163
    MIXING:  cpu time    0.0920: real time    0.0893
    --------------------------------------------
      LOOP:  cpu time 1261.1360: real time 1264.9482

 eigenvalue-minimisations  : 48840
 total energy-change (2. order) : 0.1092559E+00  (-0.1574076E+00)
 number of electron     432.0000002 magnetization     101.9483255
 augmentation part       89.9474408 magnetization      73.3177440

 Broyden mixing:
  rms(total) = 0.23940E+00    rms(broyden)= 0.23914E+00
  rms(prec ) = 0.29154E+00
  weight for this iteration     100.00

 eigenvalues of (default mixing * dielectric matrix)
  average eigenvalue GAMMA=   0.7676
  2.3837  1.8326  1.8326  0.8041  0.8041  0.5457  0.3443  0.0969  0.1094  0.1263
  0.1554  0.1760

 Free energy of the ion-electron system (eV)
  ---------------------------------------------------
  alpha Z        PSCENC =      1700.89082154
  Ewald energy   TEWEN  =    -21121.38605176
  -Hartree energ DENC   =     -3524.78568898
  -exchange      EXHF   =         0.00000000
  -V(xc)+E(xc)   XCENC  =      -790.09413434
  PAW double counting   =     14864.33060027   -13586.32874949
  entropy T*S    EENTRO =         0.02841046
  eigenvalues    EBANDS =       818.50237150
  atomic energy  EATOM  =     21129.20924906
  Solvation  Ediel_sol  =         0.00000000
  ---------------------------------------------------
  free energy    TOTEN  =      -509.63317175 eV

  energy without entropy =     -509.66158221  energy(sigma->0) =     -509.64264190


--------------------------------------------------------------------------------------------------------




----------------------------------------- Iteration    1(  18)  ---------------------------------------


    POTLOK:  cpu time    1.6320: real time    1.6342
    SETDIJ:  cpu time    1.9600: real time    1.9676
     EDDAV:  cpu time 1173.5440: real time 1176.9608
       DOS:  cpu time    0.0560: real time    0.0563
    CHARGE:  cpu time   47.0920: real time   47.2104
    MIXING:  cpu time    0.0640: real time    0.0654
    --------------------------------------------
      LOOP:  cpu time 1224.3480: real time 1227.9034

 eigenvalue-minimisations  : 46776
 total energy-change (2. order) :-0.9264344E-01  (-0.3909175E-01)
 number of electron     432.0000002 magnetization     102.5195669
 augmentation part       90.0495109 magnetization      73.5630601

 Broyden mixing:
  rms(total) = 0.23290E+00    rms(broyden)= 0.23281E+00
  rms(prec ) = 0.33014E+00
  weight for this iteration     100.00

 eigenvalues of (default mixing * dielectric matrix)
  average eigenvalue GAMMA=   0.7485
  2.5426  1.8324  1.8324  0.8211  0.8211  0.5379  0.3455  0.3304  0.0969  0.1094
  0.1263  0.1553  0.1795

 Free energy of the ion-electron system (eV)
  ---------------------------------------------------
  alpha Z        PSCENC =      1700.89082154
  Ewald energy   TEWEN  =    -21121.38605176
  -Hartree energ DENC   =     -3517.16909438
  -exchange      EXHF   =         0.00000000
  -V(xc)+E(xc)   XCENC  =      -787.10366376
  PAW double counting   =     14887.61134236   -13613.22883593
  entropy T*S    EENTRO =         0.01989423
  eigenvalues    EBANDS =       811.43052346
  atomic energy  EATOM  =     21129.20924906
  Solvation  Ediel_sol  =         0.00000000
  ---------------------------------------------------
  free energy    TOTEN  =      -509.72581519 eV

  energy without entropy =     -509.74570941  energy(sigma->0) =     -509.73244660


--------------------------------------------------------------------------------------------------------




----------------------------------------- Iteration    1(  19)  ---------------------------------------


    POTLOK:  cpu time    1.6520: real time    1.6555
    SETDIJ:  cpu time    1.9640: real time    1.9677
     EDDAV:  cpu time 1230.3320: real time 1234.2044
       DOS:  cpu time    0.0520: real time    0.0539
    CHARGE:  cpu time   46.5240: real time   46.6865
    MIXING:  cpu time    0.0600: real time    0.0578
    --------------------------------------------
      LOOP:  cpu time 1280.5840: real time 1284.6324

 eigenvalue-minimisations  : 49608
 total energy-change (2. order) : 0.2286423E-01  (-0.2042633E-01)
 number of electron     432.0000002 magnetization     102.7401049
 augmentation part       90.0482934 magnetization      73.7197672

 Broyden mixing:
  rms(total) = 0.12478E+00    rms(broyden)= 0.12471E+00
  rms(prec ) = 0.16734E+00
  weight for this iteration     100.00

 eigenvalues of (default mixing * dielectric matrix)
  average eigenvalue GAMMA=   0.7660
  2.4251  1.8462  1.8462  1.0533  1.0533  0.7503  0.5528  0.3442  0.0969  0.1094
  0.1263  0.1553  0.1811  0.1831

 Free energy of the ion-electron system (eV)
  ---------------------------------------------------
  alpha Z        PSCENC =      1700.89082154
  Ewald energy   TEWEN  =    -21121.38605176
  -Hartree energ DENC   =     -3515.65081008
  -exchange      EXHF   =         0.00000000
  -V(xc)+E(xc)   XCENC  =      -786.81693916
  PAW double counting   =     14890.92840363   -13617.39912508
  entropy T*S    EENTRO =         0.01806839
  eigenvalues    EBANDS =       810.50343250
  atomic energy  EATOM  =     21129.20924906
  Solvation  Ediel_sol  =         0.00000000
  ---------------------------------------------------
  free energy    TOTEN  =      -509.70295096 eV

  energy without entropy =     -509.72101935  energy(sigma->0) =     -509.70897376


--------------------------------------------------------------------------------------------------------




----------------------------------------- Iteration    1(  20)  ---------------------------------------


    POTLOK:  cpu time    1.6320: real time    1.6349
    SETDIJ:  cpu time    1.9720: real time    1.9772
     EDDAV:  cpu time 1179.4280: real time 1183.6888
       DOS:  cpu time    0.0560: real time    0.0553
    CHARGE:  cpu time   46.4760: real time   46.6405
    MIXING:  cpu time    0.1280: real time    0.1275
    --------------------------------------------
      LOOP:  cpu time 1229.6920: real time 1234.1299

 eigenvalue-minimisations  : 47184
 total energy-change (2. order) : 0.5221002E-02  (-0.5366749E-02)
 number of electron     432.0000002 magnetization     103.1856591
 augmentation part       89.9911606 magnetization      74.1138998

 Broyden mixing:
  rms(total) = 0.84576E-01    rms(broyden)= 0.84560E-01
  rms(prec ) = 0.10382E+00
  weight for this iteration     100.00

 eigenvalues of (default mixing * dielectric matrix)
  average eigenvalue GAMMA=   0.7727
  2.5150  1.7363  1.7363  1.6403  0.8399  0.8399  0.5421  0.5421  0.3442  0.0969
  0.1094  0.1263  0.1554  0.1771  0.1890

 Free energy of the ion-electron system (eV)
  ---------------------------------------------------
  alpha Z        PSCENC =      1700.89082154
  Ewald energy   TEWEN  =    -21121.38605176
  -Hartree energ DENC   =     -3514.87561791
  -exchange      EXHF   =         0.00000000
  -V(xc)+E(xc)   XCENC  =      -787.41526262
  PAW double counting   =     14887.74983692   -13615.20522635
  entropy T*S    EENTRO =         0.01800273
  eigenvalues    EBANDS =       811.31651845
  atomic energy  EATOM  =     21129.20924906
  Solvation  Ediel_sol  =         0.00000000
  ---------------------------------------------------
  free energy    TOTEN  =      -509.69772996 eV

  energy without entropy =     -509.71573269  energy(sigma->0) =     -509.70373087


--------------------------------------------------------------------------------------------------------




----------------------------------------- Iteration    1(  21)  ---------------------------------------


    POTLOK:  cpu time    1.6080: real time    1.6131
    SETDIJ:  cpu time    1.9920: real time    1.9960
     EDDAV:  cpu time 1253.7440: real time 1258.2359
       DOS:  cpu time    0.0560: real time    0.0556
    CHARGE:  cpu time   45.4400: real time   45.5980
    MIXING:  cpu time    0.0800: real time    0.0772
    --------------------------------------------
      LOOP:  cpu time 1302.9200: real time 1307.5830

 eigenvalue-minimisations  : 51240
 total energy-change (2. order) :-0.3477401E-02  (-0.2275139E-02)
 number of electron     432.0000002 magnetization     103.9019522
 augmentation part       89.9832707 magnetization      74.7737631

 Broyden mixing:
  rms(total) = 0.70375E-01    rms(broyden)= 0.70359E-01
  rms(prec ) = 0.93321E-01
  weight for this iteration     100.00

 eigenvalues of (default mixing * dielectric matrix)
  average eigenvalue GAMMA=   0.7734
  2.5626  1.9858  1.7311  1.7311  0.8872  0.8872  0.6253  0.5646  0.3442  0.0969
  0.1094  0.1263  0.1553  0.1994  0.1800  0.1873

 Free energy of the ion-electron system (eV)
  ---------------------------------------------------
  alpha Z        PSCENC =      1700.89082154
  Ewald energy   TEWEN  =    -21121.38605176
  -Hartree energ DENC   =     -3514.66519633
  -exchange      EXHF   =         0.00000000
  -V(xc)+E(xc)   XCENC  =      -786.85266033
  PAW double counting   =     14889.24798485   -13617.16387658
  entropy T*S    EENTRO =         0.01683573
  eigenvalues    EBANDS =       811.00168646
  atomic energy  EATOM  =     21129.20924906
  Solvation  Ediel_sol  =         0.00000000
  ---------------------------------------------------
  free energy    TOTEN  =      -509.70120736 eV

  energy without entropy =     -509.71804309  energy(sigma->0) =     -509.70681927


--------------------------------------------------------------------------------------------------------




----------------------------------------- Iteration    1(  22)  ---------------------------------------


    POTLOK:  cpu time    1.6320: real time    1.6341
    SETDIJ:  cpu time    1.9680: real time    1.9745
     EDDAV:  cpu time 1239.1560: real time 1243.4658
       DOS:  cpu time    0.0560: real time    0.0565
    CHARGE:  cpu time   45.7400: real time   45.8834
    MIXING:  cpu time    0.0880: real time    0.0920
    --------------------------------------------
      LOOP:  cpu time 1288.6400: real time 1293.1152

 eigenvalue-minimisations  : 51136
 total energy-change (2. order) : 0.1147592E-02  (-0.1286095E-02)
 number of electron     432.0000002 magnetization     103.8126721
 augmentation part       89.9951423 magnetization      74.6101479

 Broyden mixing:
  rms(total) = 0.29381E-01    rms(broyden)= 0.29360E-01
  rms(prec ) = 0.38219E-01
  weight for this iteration     100.00

 eigenvalues of (default mixing * dielectric matrix)
  average eigenvalue GAMMA=   0.7883
  2.4718  2.4718  1.7195  1.7195  0.8925  0.8925  0.6900  0.5826  0.5730  0.3442
  0.0969  0.1094  0.1263  0.1554  0.1948  0.1849  0.1770

 Free energy of the ion-electron system (eV)
  ---------------------------------------------------
  alpha Z        PSCENC =      1700.89082154
  Ewald energy   TEWEN  =    -21121.38605176
  -Hartree energ DENC   =     -3514.25069910
  -exchange      EXHF   =         0.00000000
  -V(xc)+E(xc)   XCENC  =      -785.89118323
  PAW double counting   =     14891.74683478   -13620.37550159
  entropy T*S    EENTRO =         0.01482227
  eigenvalues    EBANDS =       810.34164827
  atomic energy  EATOM  =     21129.20924906
  Solvation  Ediel_sol  =         0.00000000
  ---------------------------------------------------
  free energy    TOTEN  =      -509.70005977 eV

  energy without entropy =     -509.71488204  energy(sigma->0) =     -509.70500053


--------------------------------------------------------------------------------------------------------




----------------------------------------- Iteration    1(  23)  ---------------------------------------


    POTLOK:  cpu time    1.6520: real time    1.6557
    SETDIJ:  cpu time    1.9600: real time    1.9667
     EDDAV:  cpu time 1193.2840: real time 1196.7623
       DOS:  cpu time    0.0520: real time    0.0506
    CHARGE:  cpu time   45.6520: real time   45.7789
    MIXING:  cpu time    0.0760: real time    0.0753
    --------------------------------------------
      LOOP:  cpu time 1242.6800: real time 1246.2979

 eigenvalue-minimisations  : 48904
 total energy-change (2. order) :-0.3245477E-03  (-0.3420303E-03)
 number of electron     432.0000002 magnetization     103.7677743
 augmentation part       90.0262470 magnetization      74.5860840

 Broyden mixing:
  rms(total) = 0.24645E-01    rms(broyden)= 0.24638E-01
  rms(prec ) = 0.34977E-01
[...]
    FORCOR:  cpu time    1.3960: real time    1.4029
    FORHAR:  cpu time    0.2880: real time    0.2903
    MIXING:  cpu time    0.0680: real time    0.0672
    OFIELD:  cpu time    0.0000: real time    0.0001

  FORCE on cell =-STRESS in cart. coord.  units (eV):
  Direction    XX          YY          ZZ          XY          YZ          ZX
  --------------------------------------------------------------------------------------
  Alpha Z  1700.89082  1700.89082  1700.89082
  Ewald   -7519.76882 -7518.59509 -6083.14912     0.00000    -2.70964    -0.00000
  Hartree   863.71722   864.51681  1785.32647    -0.00000    -0.64520     0.00000
  E(xc)   -1890.11699 -1890.11609 -1899.95082     0.00004     0.04454     0.00000
  Local    1209.64153  1207.54800 -1206.94295    -0.00054     3.19607     0.00000
  n-local   475.96775   475.95389   451.74987    -0.12730    -0.16224    -0.00185
  augment  1017.91820  1017.93087  1058.56456     0.00060    -0.00697     0.00000
  Kinetic  4142.07593  4142.01419  4193.72847     1.39066    -0.01789     0.00084
  Fock        0.00000     0.00000     0.00000     0.00000     0.00000     0.00000
  -------------------------------------------------------------------------------------
  Total       0.32564     0.14342     0.21730     0.00000    -0.30133     0.00000
  in kB       0.45198     0.19906     0.30161     0.00000    -0.41824     0.00000
  external pressure =        0.32 kB  Pullay stress =        0.00 kB


 VOLUME and BASIS-vectors are now :
 -----------------------------------------------------------------------------
  energy-cutoff  :      320.00
  volume of cell :     1154.33
      direct lattice vectors                 reciprocal lattice vectors
    11.000217144  0.000000000  0.000000000     0.090907296  0.052485352 -0.000000000
    -5.500108572  9.526467494  0.000000000     0.000000000  0.104970704  0.000000000
     0.000000000  0.000000000 11.015273102     0.000000000 -0.000000000  0.090783042

  length of vectors
    11.000217144 11.000217144 11.015273102     0.104970704  0.104970704  0.090783042


 FORCES acting on ions
    electron-ion (+dipol)            ewald-force                    non-local-force                 convergence-correction
 -----------------------------------------------------------------------------------------------
   -.186E-01 -.310E+01 0.163E-01   0.365E-01 0.316E+01 -.799E-14   -.210E-01 -.654E-01 -.157E-01   0.105E-03 -.271E-05 0.828E-04
   0.251E+00 0.316E+01 -.201E-01   -.233E+00 -.322E+01 0.568E-12   -.235E-01 0.748E-01 0.191E-01   -.113E-03 0.358E-05 -.108E-03
   -.103E+01 0.646E-01 -.203E-02   0.102E+01 -.639E-01 0.117E-11   0.118E-01 -.102E-02 -.632E-03   0.236E-05 -.190E-03 0.247E-04
   -.505E+01 -.272E-06 0.146E-06   0.516E+01 -.981E-11 -.613E-12   -.126E+00 0.000E+00 0.000E+00   0.210E-03 -.766E-08 -.206E-09
   0.209E+02 0.102E-05 -.457E-06   -.214E+02 0.231E-11 0.935E-12   -.640E+00 0.000E+00 0.000E+00   -.105E-03 0.159E-07 0.150E-08
   -.564E+01 -.193E-06 0.764E-07   0.577E+01 0.983E-11 0.575E-12   -.160E+00 0.000E+00 0.000E+00   -.231E-03 -.120E-07 -.156E-08
   -.103E+01 -.646E-01 0.203E-02   0.102E+01 0.639E-01 -.119E-11   0.118E-01 0.102E-02 0.632E-03   0.237E-05 0.190E-03 -.247E-04
   -.186E-01 0.310E+01 -.163E-01   0.365E-01 -.316E+01 -.641E-12   -.210E-01 0.654E-01 0.157E-01   0.105E-03 0.275E-05 -.828E-04
   0.251E+00 -.316E+01 0.201E-01   -.233E+00 0.322E+01 0.124E-13   -.235E-01 -.748E-01 -.191E-01   -.113E-03 -.359E-05 0.108E-03
   0.136E+00 -.339E+00 -.536E-02   -.130E+00 0.337E+00 -.160E-13   -.588E-02 0.483E-02 0.102E-01   -.767E-04 -.221E-03 -.754E-04
   0.170E+00 0.324E+00 0.557E-02   -.164E+00 -.321E+00 0.632E-12   -.452E-02 -.442E-02 -.107E-01   0.146E-03 -.114E-03 0.107E-03
   -.321E+00 0.163E-01 0.210E-03   0.299E+00 -.157E-01 0.112E-11   0.958E-02 -.757E-03 0.993E-03   -.680E-04 0.248E-04 0.663E-05
   -.444E+00 0.744E-08 0.223E-08   0.445E+00 -.980E-11 -.573E-12   0.255E-02 0.000E+00 0.000E+00   -.279E-03 -.250E-08 0.384E-08
   0.878E+00 0.138E-07 0.485E-09   -.869E+00 0.142E-13 -.115E-13   -.134E-01 0.000E+00 0.000E+00   0.115E-03 0.102E-07 0.201E-08
   -.399E+00 -.655E-08 -.546E-08   0.400E+00 0.984E-11 0.525E-12   0.299E-02 0.000E+00 0.000E+00   0.161E-03 -.808E-08 -.575E-08
   -.321E+00 -.163E-01 -.210E-03   0.299E+00 0.157E-01 -.113E-11   0.958E-02 0.757E-03 -.993E-03   -.680E-04 -.248E-04 -.663E-05
   0.136E+00 0.339E+00 0.536E-02   -.130E+00 -.337E+00 -.668E-12   -.588E-02 -.483E-02 -.102E-01   -.767E-04 0.221E-03 0.754E-04
   0.170E+00 -.324E+00 -.557E-02   -.164E+00 0.321E+00 -.213E-13   -.452E-02 0.442E-02 0.107E-01   0.146E-03 0.114E-03 -.107E-03
   0.149E+00 -.113E+01 -.745E+00   -.187E+00 0.110E+01 0.721E+00   0.350E-01 0.305E-01 0.258E-01   0.227E-04 -.140E-03 0.409E-03
   0.256E+00 0.111E+01 0.739E+00   -.295E+00 -.108E+01 -.717E+00   0.359E-01 -.317E-01 -.267E-01   0.939E-04 -.441E-04 0.361E-03
   -.617E+00 0.378E-01 0.192E-01   0.607E+00 -.353E-01 -.168E-01   0.108E-01 -.293E-02 -.288E-02   -.119E-03 -.467E-04 0.374E-04
   -.164E+01 0.238E-01 -.135E+01   0.165E+01 -.980E-11 0.135E+01   0.688E-03 -.202E-01 -.341E-02   -.120E-03 0.103E-04 0.278E-03
   0.514E+01 -.422E-02 -.491E+00   -.520E+01 0.160E-13 0.491E+00   0.426E-01 0.263E-02 0.631E-02   0.134E-03 -.202E-04 0.809E-03
   -.165E+01 -.137E-01 0.154E+01   0.165E+01 0.983E-11 -.154E+01   0.655E-02 0.161E-01 -.597E-02   -.376E-05 -.644E-04 -.354E-04
   -.608E+00 -.366E-01 0.164E-01   0.607E+00 0.353E-01 -.168E-01   0.178E-02 0.166E-02 -.130E-02   -.154E-04 0.651E-04 0.693E-04
   0.173E+00 0.104E+01 -.697E+00   -.187E+00 -.110E+01 0.721E+00   0.110E-01 0.498E-01 -.253E-01   -.159E-04 0.182E-03 0.416E-03
   0.287E+00 -.102E+01 0.694E+00   -.295E+00 0.108E+01 -.717E+00   0.641E-02 -.534E-01 0.251E-01   0.296E-04 0.583E-04 0.360E-03
   0.173E+00 -.104E+01 0.697E+00   -.187E+00 0.110E+01 -.721E+00   0.110E-01 -.498E-01 0.253E-01   -.159E-04 -.182E-03 -.416E-03
   0.287E+00 0.102E+01 -.694E+00   -.295E+00 -.108E+01 0.717E+00   0.641E-02 0.534E-01 -.251E-01   0.296E-04 -.583E-04 -.360E-03
   -.608E+00 0.366E-01 -.164E-01   0.607E+00 -.353E-01 0.168E-01   0.178E-02 -.166E-02 0.130E-02   -.154E-04 -.651E-04 -.693E-04
   -.164E+01 -.238E-01 0.135E+01   0.165E+01 -.981E-11 -.135E+01   0.688E-03 0.202E-01 0.341E-02   -.120E-03 -.103E-04 -.278E-03
   0.514E+01 0.422E-02 0.491E+00   -.520E+01 0.213E-13 -.491E+00   0.426E-01 -.263E-02 -.631E-02   0.134E-03 0.201E-04 -.809E-03
   -.165E+01 0.137E-01 -.154E+01   0.165E+01 0.984E-11 0.154E+01   0.655E-02 -.161E-01 0.597E-02   -.376E-05 0.644E-04 0.354E-04
   -.617E+00 -.378E-01 -.192E-01   0.607E+00 0.353E-01 0.168E-01   0.108E-01 0.293E-02 0.288E-02   -.119E-03 0.467E-04 -.374E-04
   0.149E+00 0.113E+01 0.745E+00   -.187E+00 -.110E+01 -.721E+00   0.350E-01 -.305E-01 -.258E-01   0.227E-04 0.140E-03 -.409E-03
   0.256E+00 -.111E+01 -.739E+00   -.295E+00 0.108E+01 0.717E+00   0.359E-01 0.317E-01 0.267E-01   0.939E-04 0.441E-04 -.361E-03
   0.144E+00 -.182E-01 -.475E-02   -.139E+00 0.178E-01 0.507E-02   -.196E-02 0.653E-03 -.295E-03   0.581E-04 -.222E-03 0.494E-04
   -.744E-01 0.304E+00 0.467E-01   0.663E-01 -.306E+00 -.426E-01   0.980E-02 0.666E-02 -.837E-02   0.102E-03 0.101E-03 0.759E-04
   -.767E-01 -.286E+00 -.411E-01   0.698E-01 0.288E+00 0.378E-01   0.634E-02 -.671E-02 0.826E-02   -.160E-03 0.687E-04 -.213E-04
   0.208E+00 -.244E+00 -.694E+00   -.208E+00 0.246E+00 0.697E+00   -.498E-02 -.235E-02 -.147E-01   0.979E-04 -.755E-05 0.154E-03
   0.295E+00 0.240E+00 0.696E+00   -.294E+00 -.241E+00 -.691E+00   -.497E-02 0.229E-02 0.387E-02   0.143E-03 0.543E-04 0.255E-03
   -.588E+00 0.969E-02 0.192E-01   0.583E+00 -.764E-02 -.170E-01   -.308E-02 -.380E-02 -.318E-02   -.240E-03 -.115E-03 -.565E-04
   -.337E+00 0.260E+00 -.284E+00   0.329E+00 -.253E+00 0.270E+00   0.170E-01 -.107E-01 0.284E-01   -.195E-03 0.206E-03 -.833E-05
   0.670E+00 0.215E-01 -.263E-01   -.672E+00 -.228E-01 0.312E-01   -.712E-03 0.120E-02 -.536E-02   -.991E-05 -.200E-04 0.226E-03
   -.307E+00 -.279E+00 0.311E+00   0.302E+00 0.273E+00 -.296E+00   0.141E-01 0.967E-02 -.305E-01   0.204E-03 -.674E-04 -.174E-04
   0.474E+00 -.590E-01 0.127E-01   -.478E+00 0.598E-01 -.120E-01   0.572E-02 -.156E-02 -.690E-03   -.754E-04 0.525E-04 -.338E-03
   -.208E+00 0.799E+00 -.676E-01   0.216E+00 -.803E+00 0.661E-01   -.106E-01 0.426E-02 0.568E-03   0.104E-04 -.476E-04 -.346E-03
   -.212E+00 -.747E+00 0.577E-01   0.213E+00 0.753E+00 -.564E-01   -.353E-02 -.407E-02 -.336E-03   0.661E-04 -.687E-04 -.270E-03
   -.348E+01 -.440E+01 0.563E+01   0.344E+01 0.438E+01 -.564E+01   0.240E+00 0.108E+00 -.144E+00   0.398E-03 0.477E-04 -.517E-03
   -.325E+01 0.514E+01 -.658E+01   0.316E+01 -.508E+01 0.654E+01   0.418E+00 -.244E+00 0.320E+00   -.397E-03 0.176E-03 -.345E-03
   -.155E+01 0.210E-01 -.311E-01   0.157E+01 -.262E-01 0.306E-01   -.157E-01 0.467E-02 -.129E-02   -.192E-04 -.868E-04 -.119E-03
   -.134E+01 0.990E+00 0.576E+00   0.133E+01 -.988E+00 -.569E+00   0.785E-02 -.553E-03 -.732E-02   0.506E-04 0.110E-03 -.364E-03
   0.481E+01 0.421E+00 0.273E+00   -.480E+01 -.424E+00 -.272E+00   0.366E-01 -.202E-01 -.166E-01   0.715E-04 -.300E-03 -.499E-03
   -.137E+01 -.113E+01 -.663E+00   0.136E+01 0.112E+01 0.652E+00   0.226E-01 0.114E-01 0.126E-01   -.115E-03 0.115E-03 -.773E-04
   -.134E+01 -.990E+00 -.576E+00   0.133E+01 0.988E+00 0.569E+00   0.785E-02 0.553E-03 0.732E-02   0.506E-04 -.110E-03 0.364E-03
   0.481E+01 -.421E+00 -.273E+00   -.480E+01 0.424E+00 0.272E+00   0.366E-01 0.202E-01 0.166E-01   0.715E-04 0.300E-03 0.499E-03
   -.137E+01 0.113E+01 0.663E+00   0.136E+01 -.112E+01 -.652E+00   0.226E-01 -.114E-01 -.126E-01   -.115E-03 -.115E-03 0.773E-04
   -.155E+01 -.210E-01 0.311E-01   0.157E+01 0.262E-01 -.306E-01   -.157E-01 -.467E-02 0.129E-02   -.192E-04 0.868E-04 0.119E-03
   -.348E+01 0.440E+01 -.563E+01   0.344E+01 -.438E+01 0.564E+01   0.240E+00 -.108E+00 0.144E+00   0.398E-03 -.477E-04 0.517E-03
   -.325E+01 -.514E+01 0.658E+01   0.316E+01 0.508E+01 -.654E+01   0.418E+00 0.244E+00 -.320E+00   -.397E-03 -.176E-03 0.345E-03
   -.208E+00 -.799E+00 0.676E-01   0.216E+00 0.803E+00 -.661E-01   -.106E-01 -.426E-02 -.568E-03   0.105E-04 0.476E-04 0.346E-03
   -.212E+00 0.747E+00 -.577E-01   0.213E+00 -.753E+00 0.564E-01   -.353E-02 0.407E-02 0.336E-03   0.661E-04 0.687E-04 0.270E-03
   0.474E+00 0.590E-01 -.127E-01   -.478E+00 -.598E-01 0.120E-01   0.572E-02 0.156E-02 0.690E-03   -.754E-04 -.525E-04 0.338E-03
   -.337E+00 -.260E+00 0.284E+00   0.329E+00 0.253E+00 -.270E+00   0.170E-01 0.107E-01 -.284E-01   -.195E-03 -.206E-03 0.833E-05
   0.670E+00 -.215E-01 0.263E-01   -.672E+00 0.228E-01 -.312E-01   -.712E-03 -.120E-02 0.536E-02   -.991E-05 0.200E-04 -.226E-03
   -.307E+00 0.279E+00 -.311E+00   0.302E+00 -.273E+00 0.296E+00   0.141E-01 -.967E-02 0.305E-01   0.204E-03 0.674E-04 0.174E-04
   -.588E+00 -.969E-02 -.192E-01   0.583E+00 0.764E-02 0.170E-01   -.308E-02 0.380E-02 0.318E-02   -.240E-03 0.115E-03 0.565E-04
   0.208E+00 0.244E+00 0.694E+00   -.208E+00 -.246E+00 -.697E+00   -.498E-02 0.235E-02 0.147E-01   0.979E-04 0.755E-05 -.154E-03
   0.295E+00 -.240E+00 -.696E+00   -.294E+00 0.241E+00 0.691E+00   -.497E-02 -.229E-02 -.387E-02   0.143E-03 -.543E-04 -.255E-03
   -.744E-01 -.304E+00 -.467E-01   0.663E-01 0.306E+00 0.426E-01   0.980E-02 -.666E-02 0.837E-02   0.102E-03 -.101E-03 -.759E-04
   -.767E-01 0.286E+00 0.411E-01   0.698E-01 -.288E+00 -.378E-01   0.634E-02 0.671E-02 -.826E-02   -.160E-03 -.687E-04 0.213E-04
   0.144E+00 0.182E-01 0.475E-02   -.139E+00 -.178E-01 -.507E-02   -.196E-02 -.653E-03 0.295E-03   0.581E-04 0.222E-03 -.494E-04
 -----------------------------------------------------------------------------------------------
   -.768E+00 0.290E-06 -.247E-06   0.206E-13 -.976E-13 -.325E-12   0.765E+00 0.330E-16 -.510E-17   -.144E-03 0.649E-08 0.268E-09


 POSITION                                       TOTAL-FORCE (eV/Angst)
 -----------------------------------------------------------------------------------
      3.66674      6.35098      0.00000        -0.002929     -0.008698      0.000677
     -3.66674      6.35098      0.00000        -0.005777      0.010975     -0.001062
     -0.00000      6.35098      0.00000         0.007418     -0.000481     -0.002635
      7.33348      0.00000      0.00000        -0.013134      0.000000      0.000000
      0.16500      0.00000      0.00000        -1.072784      0.000000      0.000000
      3.66674      0.00000      0.00000        -0.031852      0.000000      0.000000
      5.50011      3.17549      0.00000         0.007418      0.000481      0.002635
     -1.83337      3.17549      0.00000        -0.002929      0.008698     -0.000677
      1.83337      3.17549      0.00000        -0.005777     -0.010975      0.001062
      3.66674      6.35098      5.50764         0.000149      0.001926      0.004735
     -3.66674      6.35098      5.50764         0.001389     -0.001819     -0.005042
     -0.00000      6.35098      5.50764        -0.012114     -0.000123      0.001210
      7.33348      0.00000      5.50764         0.004199      0.000000      0.000000
      0.00000      0.00000      5.50764        -0.003463      0.000000      0.000000
      3.66674      0.00000      5.50764         0.003916      0.000000      0.000000
      5.50011      3.17549      5.50764        -0.012114      0.000123     -0.001210
     -1.83337      3.17549      5.50764         0.000149     -0.001926     -0.004735
      1.83337      3.17549      5.50764         0.001389      0.001819      0.005042
      3.66674      6.35098      8.26145        -0.002108      0.004952      0.003066
     -3.66674      6.35098      8.26145        -0.003174     -0.006447     -0.004515
     -0.00000      6.35098      8.26145         0.000648     -0.000456     -0.000437
      7.33348      0.00000      8.26145         0.008509      0.003566      0.002033
      0.00000      0.00000      8.26145        -0.017678     -0.001609      0.008060
      3.66674      0.00000      8.26145         0.009349      0.002262     -0.003919
      5.50011      3.17549      8.26145         0.000585      0.000375     -0.001583
     -1.83337      3.17549      8.26145        -0.002974     -0.008984     -0.000480
      1.83337      3.17549      8.26145        -0.001769      0.005684      0.001877
      3.66674      6.35098      2.75382        -0.002974      0.008984      0.000480
     -3.66674      6.35098      2.75382        -0.001769     -0.005684     -0.001877
     -0.00000      6.35098      2.75382         0.000585     -0.000375      0.001583
      7.33348      0.00000      2.75382         0.008509     -0.003566     -0.002033
      0.00000      0.00000      2.75382        -0.017678      0.001609     -0.008060
      3.66674      0.00000      2.75382         0.009349     -0.002262      0.003919
      5.50011      3.17549      2.75382         0.000648      0.000456      0.000437
     -1.83337      3.17549      2.75382        -0.002108     -0.004952     -0.003066
      1.83337      3.17549      2.75382        -0.003174      0.006447      0.004515
      5.50011      5.29248      6.88455         0.002940      0.000023      0.000071
     -1.83337      5.29248      6.88455         0.001904      0.005633     -0.004178
      1.83337      5.29248      6.88455        -0.000672     -0.004434      0.004983
      3.66674      8.46797      6.88455        -0.004724     -0.000527     -0.011983
     -3.66674      8.46797      6.88455        -0.004454      0.001567      0.008589
     -0.00000      8.46797      6.88455        -0.007956     -0.001868     -0.001084
      7.33348      2.11699      6.88455         0.008642     -0.003752      0.015209
     -0.00000      2.11699      6.88455        -0.002776     -0.000045     -0.000305
      3.66674      2.11699      6.88455         0.009564      0.003333     -0.015924
      5.50011      5.29248      1.37691         0.001648     -0.000709     -0.000300
     -1.83337      5.29248      1.37691        -0.002412     -0.000373     -0.001323
      1.83337      5.29248      1.37691        -0.001996      0.002042      0.000644
      3.66674      8.46797      1.37691         0.200635      0.090409     -0.153119
     -3.66674      8.46797      1.37691         0.330455     -0.180013      0.280698
     -0.00000      8.46797      1.37691        -0.000918     -0.000629     -0.001934
      7.33348      2.11699      1.37691        -0.000736      0.001101     -0.000154
     -0.00000      2.11699      1.37691         0.040058     -0.023361     -0.016067
      3.66674      2.11699      1.37691         0.007832      0.003385      0.001794
      1.83337      7.40947      9.63836        -0.000736     -0.001101      0.000154
      5.50011      7.40947      9.63836         0.040058      0.023361      0.016067
     -1.83337      7.40947      9.63836         0.007832     -0.003385     -0.001794
      5.50011      1.05850      9.63836        -0.000918      0.000629      0.001934
      9.16685      1.05850      9.63836         0.200635     -0.090409      0.153119
      1.83337      1.05850      9.63836         0.330455      0.180013     -0.280698
      3.66674      4.23399      9.63836        -0.002412      0.000373      0.001323
      7.33348      4.23399      9.63836        -0.001996     -0.002042     -0.000644
     -0.00000      4.23399      9.63836         0.001648      0.000709      0.000300
      1.83337      7.40947      4.13073         0.008642      0.003752     -0.015209
      5.50011      7.40947      4.13073        -0.002776      0.000045      0.000305
     -1.83337      7.40947      4.13073         0.009564     -0.003333      0.015924
      5.50011      1.05850      4.13073        -0.007956      0.001868      0.001084
      9.16685      1.05850      4.13073        -0.004724      0.000527      0.011983
      1.83337      1.05850      4.13073        -0.004454     -0.001567     -0.008589
      3.66674      4.23399      4.13073         0.001904     -0.005633      0.004178
      7.33348      4.23399      4.13073        -0.000672      0.004434     -0.004983
     -0.00000      4.23399      4.13073         0.002940     -0.000023     -0.000071
 -----------------------------------------------------------------------------------
    total drift:                               -0.003047      0.000000     -0.000000


--------------------------------------------------------------------------------------------------------



  FREE ENERGIE OF THE ION-ELECTRON SYSTEM (eV)
  ---------------------------------------------------
  free  energy   TOTEN  =      -509.70010675 eV

  energy  without entropy=     -509.71560883  energy(sigma->0) =     -509.70527411



--------------------------------------------------------------------------------------------------------


    POTLOK:  cpu time    3.2080: real time    3.2189


--------------------------------------------------------------------------------------------------------


     LOOP+:  cpu time40783.1120: real time40925.7917
    4ORBIT:  cpu time    0.0000: real time    0.0000

 total amount of memory used by VASP on root node   334139. kBytes
========================================================================

   base      :      30000. kBytes
   nonlr-proj:      20520. kBytes
   fftplans  :      28296. kBytes
   grid      :      21369. kBytes
   one-center:        559. kBytes
   wavefun   :     233395. kBytes

  
  
 General timing and accounting informations for this job:
 ========================================================
  
                  Total CPU time used (sec):    40933.195
                            User time (sec):    40569.832
                          System time (sec):      363.364
                         Elapsed time (sec):    41080.178
  
                   Maximum memory used (kb):      385316.
                   Average memory used (kb):           0.
  
                          Minor page faults:        94852
                          Major page faults:            6
                 Voluntary context switches:          589
