 vasp.5.4.1 24Jun15 (build Oct  9 2015 14:58:31) complex                         
 executed on           IFC91_ompi date 2017.05.25  07:06:24
 running on   16 total cores
 distrk:  each k-point on   16 cores,    1 groups
 distr:  one band on NCORES_PER_BAND=   4 cores,    4 groups


--------------------------------------------------------------------------------------------------------


 INCAR:
 POTCAR:   PAW_PBE Mn 06Sep2000                   
 POTCAR:   PAW_PBE As 06Sep2000                   
 POTCAR:   PAW_PBE Mn 06Sep2000                   
   VRHFIN =Mn: d6 s1                                                            
   LEXCH  = PE                                                                  
   EATOM  =   416.8732 eV,   30.6393 Ry                                         
                                                                                
   TITEL  = PAW_PBE Mn 06Sep2000                                                
   LULTRA =        F    use ultrasoft PP ?                                      
   IUNSCR =        1    unscreen: 0-lin 1-nonlin 2-no                           
   RPACOR =    2.000    partial core radius                                     
   POMASS =   54.938; ZVAL   =    7.000    mass and valenz                      
   RCORE  =    2.300    outmost cutoff radius                                   
   RWIGS  =    2.500; RWIGS  =    1.323    wigner-seitz radius (au A)           
   ENMAX  =  269.865; ENMIN  =  202.399 eV                                      
   RCLOC  =    1.725    cutoff for local pot                                    
   LCOR   =        T    correct aug charges                                     
   LPAW   =        T    paw PP                                                  
   EAUG   =  500.711                                                            
   DEXC   =    -.071                                                            
   RMAX   =    2.807    core radius for proj-oper                               
   RAUG   =    1.300    factor for augmentation sphere                          
   RDEP   =    2.338    radius for radial grids                                 
   QCUT   =   -4.454; QGAM   =    8.907    optimization parameters              
                                                                                
   Description                                                                  
     l     E      TYP  RCUT    TYP  RCUT                                        
     2   .000     23  2.300                                                     
     2   .000     23  2.300                                                     
     0   .000     23  2.300                                                     
     0   .000     23  2.300                                                     
     1  -.200     23  2.300                                                     
     1  1.500     23  2.300                                                     
     3   .000      7   .000                                                     
  local pseudopotential read in
  partial core-charges read in
  atomic valenz-charges read in
  non local Contribution for L=           2  read in
    real space projection operators read in
  non local Contribution for L=           2  read in
    real space projection operators read in
  non local Contribution for L=           0  read in
    real space projection operators read in
  non local Contribution for L=           0  read in
    real space projection operators read in
  non local Contribution for L=           1  read in
    real space projection operators read in
  non local Contribution for L=           1  read in
    real space projection operators read in
    PAW grid and wavefunctions read in

   number of l-projection  operators is LMAX  =           6
   number of lm-projection operators is LMMAX =          18

 POTCAR:   PAW_PBE As 06Sep2000                   
   VRHFIN =As: s2p3                                                             
   LEXCH  = PE                                                                  
   EATOM  =   170.0753 eV,   12.5002 Ry                                         
                                                                                
   TITEL  = PAW_PBE As 06Sep2000                                                
   LULTRA =        F    use ultrasoft PP ?                                      
   IUNSCR =        1    unscreen: 0-lin 1-nonlin 2-no                           
   RPACOR =    1.900    partial core radius                                     
   POMASS =   74.922; ZVAL   =    5.000    mass and valenz                      
   RCORE  =    2.100    outmost cutoff radius                                   
   RWIGS  =    2.300; RWIGS  =    1.217    wigner-seitz radius (au A)           
   ENMAX  =  208.680; ENMIN  =  156.510 eV                                      
   ICORE  =        3    local potential                                         
   LCOR   =        T    correct aug charges                                     
   LPAW   =        T    paw PP                                                  
   EAUG   =  462.758                                                            
   DEXC   =    -.108                                                            
   RMAX   =    3.192    core radius for proj-oper                               
   RAUG   =    1.300    factor for augmentation sphere                          
   RDEP   =    2.140    radius for radial grids                                 
   QCUT   =   -3.916; QGAM   =    7.833    optimization parameters              
                                                                                
   Description                                                                  
     l     E      TYP  RCUT    TYP  RCUT                                        
     0   .000     23  2.100                                                     
     0   .000     23  2.100                                                     
     1   .000     23  2.100                                                     
     1   .000     23  2.100                                                     
     2   .000     23  2.100                                                     
     3  -.100      7  2.100                                                     
  local pseudopotential read in
  partial core-charges read in
  atomic valenz-charges read in
  non local Contribution for L=           0  read in
    real space projection operators read in
  non local Contribution for L=           0  read in
    real space projection operators read in
  non local Contribution for L=           1  read in
    real space projection operators read in
  non local Contribution for L=           1  read in
    real space projection operators read in
  non local Contribution for L=           2  read in
    real space projection operators read in
    PAW grid and wavefunctions read in

   number of l-projection  operators is LMAX  =           5
   number of lm-projection operators is LMMAX =          13

 PAW_PBE Mn 06Sep2000                   :
 energy of atom  1       EATOM= -416.8732
 kinetic energy error for atom=    0.0239 (will be added to EATOM!!)
 PAW_PBE As 06Sep2000                   :
 energy of atom  2       EATOM= -170.0753
 kinetic energy error for atom=    0.0021 (will be added to EATOM!!)


 POSCAR: For VASP. System=    MnAs_hex           
  positions in direct lattice
  No initial velocities read in
 exchange correlation table for  LEXCH =        8
   RHO(1)=    0.500       N(1)  =     2000
   RHO(2)=  100.500       N(2)  =     4000



--------------------------------------------------------------------------------------------------------


 ion  position               nearest neighbor table
   1  0.667  0.667  0.000-  56 2.53  55 2.53  46 2.53  49 2.53  48 2.53  61 2.53  19 2.75  28 2.75

   2  0.000  0.667  0.000-  56 2.53  46 2.53  57 2.53  47 2.53  50 2.53  62 2.53  20 2.75  29 2.75

   3  0.333  0.667  0.000-  57 2.53  47 2.53  51 2.53  55 2.53  48 2.53  63 2.53  21 2.75  30 2.75

   4  0.667  0.000  0.000-  49 2.53  59 2.53  58 2.53  52 2.53  55 2.53  51 2.53  22 2.75  31 2.75

   5  0.006  0.000  0.000-  50 2.48  60 2.48  56 2.53  53 2.53  59 2.57  49 2.57  23 2.75  32 2.75

   6  0.333  0.000  0.000-  60 2.53  50 2.53  51 2.53  57 2.53  54 2.53  58 2.53  24 2.75  33 2.75

   7  0.667  0.333  0.000-  52 2.53  62 2.53  58 2.53  54 2.53  61 2.53  46 2.53  25 2.75  34 2.75

   8  0.000  0.333  0.000-  53 2.53  52 2.53  63 2.53  62 2.53  59 2.53  47 2.53  26 2.75  35 2.75

   9  0.333  0.333  0.000-  53 2.53  54 2.53  63 2.53  60 2.53  61 2.53  48 2.53  27 2.75  36 2.75

  10  0.667  0.667  0.500-  65 2.53  64 2.53  37 2.53  40 2.53  39 2.53  70 2.53  19 2.75  28 2.75

  11  0.000  0.667  0.500-  65 2.53  37 2.53  66 2.53  38 2.53  41 2.53  71 2.53  20 2.75  29 2.75

  12  0.333  0.667  0.500-  66 2.53  38 2.53  42 2.53  64 2.53  39 2.53  72 2.53  21 2.75  30 2.75

  13  0.667  0.000  0.500-  40 2.53  68 2.53  67 2.53  43 2.53  64 2.53  42 2.53  22 2.75  31 2.75

  14  0.000  0.000  0.500-  41 2.53  68 2.53  40 2.53  69 2.53  44 2.53  65 2.53  23 2.75  32 2.75

  15  0.333  0.000  0.500-  69 2.53  41 2.53  42 2.53  66 2.53  45 2.53  67 2.53  24 2.75  33 2.75

  16  0.667  0.333  0.500-  43 2.53  71 2.53  67 2.53  45 2.53  70 2.53  37 2.53  25 2.75  34 2.75

  17  0.000  0.333  0.500-  44 2.53  43 2.53  72 2.53  71 2.53  68 2.53  38 2.53  26 2.75  35 2.75

  18  0.333  0.333  0.500-  44 2.53  45 2.53  72 2.53  69 2.53  70 2.53  39 2.53  27 2.75  36 2.75

  19  0.667  0.667  0.750-  56 2.53  55 2.53  37 2.53  40 2.53  39 2.53  61 2.53   1 2.75  10 2.75

  20  0.000  0.667  0.750-  56 2.53  37 2.53  57 2.53  38 2.53  41 2.53  62 2.53   2 2.75  11 2.75

  21  0.333  0.667  0.750-  57 2.53  38 2.53  42 2.53  55 2.53  39 2.53  63 2.53   3 2.75  12 2.75

  22  0.667  0.000  0.750-  40 2.53  59 2.53  58 2.53  43 2.53  55 2.53  42 2.53   4 2.75  13 2.75

  23  0.000  0.000  0.750-  41 2.53  59 2.53  40 2.53  60 2.53  44 2.53  56 2.53  14 2.75   5 2.75

  24  0.333  0.000  0.750-  60 2.53  41 2.53  42 2.53  57 2.53  45 2.53  58 2.53   6 2.75  15 2.75

  25  0.667  0.333  0.750-  43 2.53  62 2.53  58 2.53  45 2.53  61 2.53  37 2.53   7 2.75  16 2.75

  26  0.000  0.333  0.750-  44 2.53  43 2.53  63 2.53  62 2.53  59 2.53  38 2.53   8 2.75  17 2.75

  27  0.333  0.333  0.750-  44 2.53  45 2.53  63 2.53  60 2.53  61 2.53  39 2.53   9 2.75  18 2.75

  28  0.667  0.667  0.250-  65 2.53  64 2.53  46 2.53  49 2.53  48 2.53  70 2.53   1 2.75  10 2.75

  29  0.000  0.667  0.250-  65 2.53  46 2.53  66 2.53  47 2.53  50 2.53  71 2.53   2 2.75  11 2.75

  30  0.333  0.667  0.250-  66 2.53  47 2.53  51 2.53  64 2.53  48 2.53  72 2.53   3 2.75  12 2.75

  31  0.667  0.000  0.250-  49 2.53  68 2.53  67 2.53  52 2.53  64 2.53  51 2.53   4 2.75  13 2.75

  32  0.000  0.000  0.250-  50 2.53  68 2.53  49 2.53  69 2.53  53 2.53  65 2.53  14 2.75   5 2.75

  33  0.333  0.000  0.250-  69 2.53  50 2.53  51 2.53  66 2.53  54 2.53  67 2.53   6 2.75  15 2.75

  34  0.667  0.333  0.250-  52 2.53  71 2.53  67 2.53  54 2.53  70 2.53  46 2.53   7 2.75  16 2.75

  35  0.000  0.333  0.250-  53 2.53  52 2.53  72 2.53  71 2.53  68 2.53  47 2.53   8 2.75  17 2.75

  36  0.333  0.333  0.250-  53 2.53  54 2.53  72 2.53  69 2.53  70 2.53  48 2.53   9 2.75  18 2.75

  37  0.778  0.556  0.625-  11 2.53  20 2.53  19 2.53  10 2.53  16 2.53  25 2.53
  38  0.111  0.556  0.625-  12 2.53  21 2.53  20 2.53  11 2.53  17 2.53  26 2.53
  39  0.444  0.556  0.625-  10 2.53  19 2.53  12 2.53  21 2.53  18 2.53  27 2.53
  40  0.778  0.889  0.625-  13 2.53  22 2.53  14 2.53  23 2.53  10 2.53  19 2.53
  41  0.111  0.889  0.625-  14 2.53  23 2.53  15 2.53  24 2.53  11 2.53  20 2.53
  42  0.444  0.889  0.625-  15 2.53  24 2.53  21 2.53  12 2.53  22 2.53  13 2.53
  43  0.778  0.222  0.625-  16 2.53  25 2.53  17 2.53  26 2.53  13 2.53  22 2.53
  44  0.111  0.222  0.625-  17 2.53  26 2.53  18 2.53  27 2.53  14 2.53  23 2.53
  45  0.444  0.222  0.625-  18 2.53  27 2.53  24 2.53  15 2.53  25 2.53  16 2.53
  46  0.778  0.556  0.125-   2 2.53  29 2.53  28 2.53   1 2.53   7 2.53  34 2.53
  47  0.111  0.556  0.125-   3 2.53  30 2.53  29 2.53   2 2.53   8 2.53  35 2.53
  48  0.444  0.556  0.125-   1 2.53  28 2.53   3 2.53  30 2.53   9 2.53  36 2.53
  49  0.778  0.889  0.125-   4 2.53  31 2.53  32 2.53   1 2.53  28 2.53   5 2.57
  50  0.111  0.889  0.125-   5 2.48  32 2.53   6 2.53  33 2.53   2 2.53  29 2.53
  51  0.444  0.889  0.125-   6 2.53  33 2.53  30 2.53   3 2.53  31 2.53   4 2.53
  52  0.778  0.222  0.125-   7 2.53  34 2.53   8 2.53  35 2.53   4 2.53  31 2.53
  53  0.111  0.222  0.125-   8 2.53  35 2.53   9 2.53  36 2.53  32 2.53   5 2.53
  54  0.444  0.222  0.125-   9 2.53  36 2.53  33 2.53   6 2.53  34 2.53   7 2.53
  55  0.556  0.778  0.875-   1 2.53  19 2.53   4 2.53  22 2.53  21 2.53   3 2.53
  56  0.889  0.778  0.875-   2 2.53  20 2.53  19 2.53   1 2.53  23 2.53   5 2.53
  57  0.222  0.778  0.875-   3 2.53  21 2.53  20 2.53   2 2.53   6 2.53  24 2.53
  58  0.556  0.111  0.875-   4 2.53  22 2.53   7 2.53  25 2.53  24 2.53   6 2.53
  59  0.889  0.111  0.875-  23 2.53  22 2.53   4 2.53   8 2.53  26 2.53   5 2.57
  60  0.222  0.111  0.875-   5 2.48   6 2.53  24 2.53  23 2.53   9 2.53  27 2.53
  61  0.556  0.444  0.875-   9 2.53  27 2.53  25 2.53   7 2.53   1 2.53  19 2.53
  62  0.889  0.444  0.875-   7 2.53  25 2.53   8 2.53  26 2.53   2 2.53  20 2.53
  63  0.222  0.444  0.875-   8 2.53  26 2.53   9 2.53  27 2.53   3 2.53  21 2.53
  64  0.556  0.778  0.375-  10 2.53  28 2.53  13 2.53  31 2.53  30 2.53  12 2.53
  65  0.889  0.778  0.375-  11 2.53  29 2.53  28 2.53  10 2.53  14 2.53  32 2.53
  66  0.222  0.778  0.375-  12 2.53  30 2.53  29 2.53  11 2.53  15 2.53  33 2.53
  67  0.556  0.111  0.375-  13 2.53  31 2.53  16 2.53  34 2.53  33 2.53  15 2.53
  68  0.889  0.111  0.375-  14 2.53  32 2.53  31 2.53  13 2.53  17 2.53  35 2.53
  69  0.222  0.111  0.375-  15 2.53  33 2.53  32 2.53  14 2.53  18 2.53  36 2.53
  70  0.556  0.444  0.375-  18 2.53  36 2.53  34 2.53  16 2.53  10 2.53  28 2.53
  71  0.889  0.444  0.375-  16 2.53  34 2.53  17 2.53  35 2.53  11 2.53  29 2.53
  72  0.222  0.444  0.375-  17 2.53  35 2.53  18 2.53  36 2.53  12 2.53  30 2.53

  LATTYP: Found a hexagonal cell.
 ALAT       =    11.0002171438
 C/A-ratio  =     1.0013686964
  
  Lattice vectors:
  
 A1 = (  11.0002171438,   0.0000000000,   0.0000000000)
 A2 = (  -5.5001085719,   9.5264674936,   0.0000000000)
 A3 = (   0.0000000000,   0.0000000000,  11.0152731015)


Analysis of symmetry for initial positions (statically):
=====================================================================
 Subroutine PRICEL returns:
 Original cell was already a primitive cell.
 

 Routine SETGRP: Setting up the symmetry group for a 
 hexagonal supercell.


 Subroutine GETGRP returns: Found  2 space group operations
 (whereof  2 operations were pure point group operations)
 out of a pool of 24 trial point group operations.


The static configuration has the point symmetry C_2 .


Analysis of symmetry for dynamics (positions and initial velocities):
=====================================================================
 Subroutine PRICEL returns:
 Original cell was already a primitive cell.
 

 Routine SETGRP: Setting up the symmetry group for a 
 hexagonal supercell.


 Subroutine GETGRP returns: Found  2 space group operations
 (whereof  2 operations were pure point group operations)
 out of a pool of 24 trial point group operations.


The dynamic configuration has the point symmetry C_2 .


Analysis of structural, dynamic, and magnetic symmetry:
=====================================================================
 Subroutine PRICEL returns:
 Original cell was already a primitive cell.
 

 Routine SETGRP: Setting up the symmetry group for a 
 hexagonal supercell.


 Subroutine GETGRP returns: Found  2 space group operations
 (whereof  2 operations were pure point group operations)
 out of a pool of 24 trial point group operations.


The magnetic configuration has the point symmetry C_2 .


 Subroutine INISYM returns: Found  2 space group operations
 (whereof  2 operations are pure point group operations),
 and found     1 'primitive' translations



 KPOINTS: Automatic mesh                          

Automatic generation of k-mesh.
Space group operators:
 irot       det(A)        alpha          n_x          n_y          n_z        tau_x        tau_y        tau_z
    1     1.000000     0.000000     1.000000     0.000000     0.000000     0.000000     0.000000     0.000000
    2     1.000000   180.000000     1.000000     0.000000     0.000000     0.000000     0.000000     0.000000
 
 Subroutine IBZKPT returns following result:
 ===========================================
 
 Found     24 irreducible k-points:
 
 Following reciprocal coordinates:
            Coordinates               Weight
  0.000000  0.000000  0.000000      1.000000
  0.250000  0.000000  0.000000      4.000000
  0.500000  0.000000  0.000000      2.000000
  0.000000  0.250000  0.000000      2.000000
  0.250000  0.250000  0.000000      4.000000
  0.500000  0.250000  0.000000      2.000000
  0.000000  0.500000  0.000000      1.000000
  0.000000  0.000000  0.250000      2.000000
  0.250000  0.000000  0.250000      4.000000
  0.500000  0.000000  0.250000      4.000000
 -0.250000  0.000000  0.250000      4.000000
  0.000000  0.250000  0.250000      2.000000
  0.250000  0.250000  0.250000      4.000000
  0.500000  0.250000  0.250000      4.000000
  0.000000  0.500000  0.250000      2.000000
  0.250000  0.500000  0.250000      4.000000
  0.000000 -0.250000  0.250000      2.000000
  0.000000  0.000000  0.500000      1.000000
  0.250000  0.000000  0.500000      4.000000
  0.500000  0.000000  0.500000      2.000000
  0.000000  0.250000  0.500000      2.000000
  0.250000  0.250000  0.500000      4.000000
  0.500000  0.250000  0.500000      2.000000
  0.000000  0.500000  0.500000      1.000000
 
 Following cartesian coordinates:
            Coordinates               Weight
  0.000000  0.000000  0.000000      1.000000
  0.022727  0.013121  0.000000      4.000000
  0.045454  0.026243  0.000000      2.000000
  0.000000  0.026243  0.000000      2.000000
  0.022727  0.039364  0.000000      4.000000
  0.045454  0.052485  0.000000      2.000000
  0.000000  0.052485  0.000000      1.000000
  0.000000  0.000000  0.022696      2.000000
  0.022727  0.013121  0.022696      4.000000
  0.045454  0.026243  0.022696      4.000000
 -0.022727 -0.013121  0.022696      4.000000
  0.000000  0.026243  0.022696      2.000000
  0.022727  0.039364  0.022696      4.000000
  0.045454  0.052485  0.022696      4.000000
  0.000000  0.052485  0.022696      2.000000
  0.022727  0.065607  0.022696      4.000000
  0.000000 -0.026243  0.022696      2.000000
  0.000000  0.000000  0.045392      1.000000
  0.022727  0.013121  0.045392      4.000000
  0.045454  0.026243  0.045392      2.000000
  0.000000  0.026243  0.045392      2.000000
  0.022727  0.039364  0.045392      4.000000
  0.045454  0.052485  0.045392      2.000000
  0.000000  0.052485  0.045392      1.000000
 


--------------------------------------------------------------------------------------------------------




 Dimension of arrays:
   k-points           NKPTS =     24   k-points in BZ     NKDIM =     24   number of bands    NBANDS=    300
   number of dos      NEDOS =    301   number of ions     NIONS =     72
   non local maximal  LDIM  =      6   non local SUM 2l+1 LMDIM =     18
   total plane-waves  NPLWV = 343000
   max r-space proj   IRMAX =   6047   max aug-charges    IRDMAX=  98554
   dimension x,y,z NGX =    70 NGY =   70 NGZ =   70
   dimension x,y,z NGXF=   140 NGYF=  140 NGZF=  140
   support grid    NGXF=   280 NGYF=  280 NGZF=  280
   ions per type =              36  36
 NGX,Y,Z   is equivalent  to a cutoff of  10.58, 10.58, 10.56 a.u.
 NGXF,Y,Z  is equivalent  to a cutoff of  21.16, 21.16, 21.13 a.u.


 I would recommend the setting:
   dimension x,y,z NGX =    64 NGY =   64 NGZ =   64
 SYSTEM =  MnAs hex                                
 POSCAR =  For VASP. System=    MnAs_hex           

 Startparameter for this run:
   NWRITE =      2    write-flag & timer
   PREC   = accura    normal or accurate (medium, high low for compatibility)
   ISTART =      0    job   : 0-new  1-cont  2-samecut
   ICHARG =      2    charge: 1-file 2-atom 10-const
   ISPIN  =      2    spin polarized calculation?
   LNONCOLLINEAR =      F non collinear calculations
   LSORBIT =      F    spin-orbit coupling
   INIWAV =      1    electr: 0-lowe 1-rand  2-diag
   LASPH  =      F    aspherical Exc in radial PAW
   METAGGA=      F    non-selfconsistent MetaGGA calc.

 Electronic Relaxation 1
   ENCUT  =  320.0 eV  23.52 Ry    4.85 a.u.  16.04 16.04 16.07*2*pi/ulx,y,z
   ENINI  =  320.0     initial cutoff
   ENAUG  =  500.7 eV  augmentation charge cutoff
   NELM   =    200;   NELMIN=  2; NELMDL=  0     # of ELM steps 
   EDIFF  = 0.1E-06   stopping-criterion for ELM
   LREAL  =      T    real-space projection
   NLSPLINE    = F    spline interpolate recip. space projectors
   LCOMPAT=      F    compatible to vasp.4.4
   GGA_COMPAT  = T    GGA compatible to vasp.4.4-vasp.4.6
   LMAXPAW     = -100 max onsite density
   LMAXMIX     =    2 max onsite mixed and CHGCAR
   VOSKOWN=      0    Vosko Wilk Nusair interpolation
   ROPT   =    0.00000   0.00000
 Ionic relaxation
   EDIFFG = 0.1E-05   stopping-criterion for IOM
   NSW    =      0    number of steps for IOM
   NBLOCK =      1;   KBLOCK =      1    inner block; outer block 
   IBRION =     -1    ionic relax: 0-MD 1-quasi-New 2-CG
   NFREE  =      1    steps in history (QN), initial steepest desc. (CG)
   ISIF   =      6    stress and relaxation
   IWAVPR =     10    prediction:  0-non 1-charg 2-wave 3-comb
   ISYM   =      2    0-nonsym 1-usesym 2-fastsym
   LCORR  =      T    Harris-Foulkes like correction to forces

   POTIM  = 0.5000    time-step for ionic-motion
   TEIN   =    0.0    initial temperature
   TEBEG  =    0.0;   TEEND  =   0.0 temperature during run
   SMASS  =  -3.00    Nose mass-parameter (am)
   estimated Nose-frequenzy (Omega)   =  0.10E-29 period in steps =****** mass=  -0.277E-26a.u.
   SCALEE = 1.0000    scale energy and forces
   NPACO  =    256;   APACO  = 16.0  distance and # of slots for P.C.
   PSTRESS=    0.0 pullay stress

  Mass of Ions in am
   POMASS =  54.94 74.92
  Ionic Valenz
   ZVAL   =   7.00  5.00
  Atomic Wigner-Seitz radii
   RWIGS  =  -1.00 -1.00
  virtual crystal weights 
   VCA    =   1.00  1.00
   NELECT =     432.0000    total number of electrons
   NUPDOWN=      -1.0000    fix difference up-down

 DOS related values:
   EMIN   =  10.00;   EMAX   =-10.00  energy-range for DOS
   EFERMI =   0.00
   ISMEAR =     1;   SIGMA  =   0.20  broadening in eV -4-tet -1-fermi 0-gaus

 Electronic relaxation 2 (details)
   IALGO  =     38    algorithm
   LDIAG  =      T    sub-space diagonalisation (order eigenvalues)
   LSUBROT=      F    optimize rotation matrix (better conditioning)
   TURBO    =      0    0=normal 1=particle mesh
   IRESTART =      0    0=no restart 2=restart with 2 vectors
   NREBOOT  =      0    no. of reboots
   NMIN     =      0    reboot dimension
   EREF     =   0.00    reference energy to select bands
   IMIX   =      4    mixing-type and parameters
     AMIX     =   0.40;   BMIX     =  1.00
     AMIX_MAG =   1.60;   BMIX_MAG =  1.00
     AMIN     =   0.10
     WC   =   100.;   INIMIX=   1;  MIXPRE=   1;  MAXMIX= -45

 Intra band minimization:
   WEIMIN = 0.0000     energy-eigenvalue tresh-hold
   EBREAK =  0.83E-10  absolut break condition
   DEPER  =   0.30     relativ break condition  

   TIME   =   0.40     timestep for ELM

  volume/ion in A,a.u.               =      16.03       108.19
  Fermi-wavevector in a.u.,A,eV,Ry     =   1.179759  2.229421 18.937012  1.391831
  Thomas-Fermi vector in A             =   2.316064

 Write flags
   LWAVE  =      F    write WAVECAR
   LCHARG =      F    write CHGCAR
   LVTOT  =      F    write LOCPOT, total local potential
   LVHAR  =      F    write LOCPOT, Hartree potential only
   LELF   =      F    write electronic localiz. function (ELF)
   LORBIT =      0    0 simple, 1 ext, 2 COOP (PROOUT)


 Dipole corrections
   LMONO  =      F    monopole corrections only (constant potential shift)
   LDIPOL =      F    correct potential (dipole corrections)
   IDIPOL =      0    1-x, 2-y, 3-z, 4-all directions 
   EPSILON=  1.0000000 bulk dielectric constant

 Exchange correlation treatment:
   GGA     =    --    GGA type
   LEXCH   =     8    internal setting for exchange type
   VOSKOWN=      0    Vosko Wilk Nusair interpolation
   LHFCALC =     F    Hartree Fock is set to
   LHFONE  =     F    Hartree Fock one center treatment
   AEXX    =    0.0000 exact exchange contribution

 Linear response parameters
   LEPSILON=     F    determine dielectric tensor
   LRPA    =     F    only Hartree local field effects (RPA)
   LNABLA  =     F    use nabla operator in PAW spheres
   LVEL    =     F    velocity operator in full k-point grid
   LINTERFAST=   F  fast interpolation
   KINTER  =     0    interpolate to denser k-point grid
   CSHIFT  =0.1000    complex shift for real part using Kramers Kronig
   OMEGAMAX=  -1.0    maximum frequency
   DEG_THRESHOLD= 0.2000000E-02 threshold for treating states as degnerate
   RTIME   =    0.100 relaxation time in fs

 Orbital magnetization related:
   ORBITALMAG=     F  switch on orbital magnetization
   LCHIMAG   =     F  perturbation theory with respect to B field
   DQ        =  0.001000  dq finite difference perturbation B field



--------------------------------------------------------------------------------------------------------


 Static calculation
 charge density and potential will be updated during run
 spin polarized calculation
 Variant of blocked Davidson
 Davidson routine will perform the subspace rotation
 perform sub-space diagonalisation
    after iterative eigenvector-optimisation
 modified Broyden-mixing scheme, WC =      100.0
 initial mixing is a Kerker type mixing with AMIX =  0.4000 and BMIX =      1.0000
 Hartree-type preconditioning will be used
 using additional bands           84
 real space projection scheme for non local part
 use partial core corrections
 calculate Harris-corrections to forces   (improved forces if not selfconsistent)
 use gradient corrections 
 use of overlap-Matrix (Vanderbilt PP)
 Methfessel and Paxton  Order N= 1 SIGMA  =   0.20


--------------------------------------------------------------------------------------------------------


  energy-cutoff  :      320.00
  volume of cell :     1154.33
      direct lattice vectors                 reciprocal lattice vectors
    11.000217144  0.000000000  0.000000000     0.090907296  0.052485352 -0.000000000
    -5.500108572  9.526467494  0.000000000     0.000000000  0.104970704  0.000000000
     0.000000000  0.000000000 11.015273102     0.000000000 -0.000000000  0.090783042

  length of vectors
    11.000217144 11.000217144 11.015273102     0.104970704  0.104970704  0.090783042



 k-points in units of 2pi/SCALE and weight: Automatic mesh                          
   0.00000000  0.00000000  0.00000000       0.016
   0.02272682  0.01312134  0.00000000       0.062
   0.04545365  0.02624268  0.00000000       0.031
   0.00000000  0.02624268  0.00000000       0.031
   0.02272682  0.03936401  0.00000000       0.062
   0.04545365  0.05248535  0.00000000       0.031
   0.00000000  0.05248535  0.00000000       0.016
   0.00000000  0.00000000  0.02269576       0.031
   0.02272682  0.01312134  0.02269576       0.062
   0.04545365  0.02624268  0.02269576       0.062
  -0.02272682 -0.01312134  0.02269576       0.062
   0.00000000  0.02624268  0.02269576       0.031
   0.02272682  0.03936401  0.02269576       0.062
   0.04545365  0.05248535  0.02269576       0.062
   0.00000000  0.05248535  0.02269576       0.031
   0.02272682  0.06560669  0.02269576       0.062
   0.00000000 -0.02624268  0.02269576       0.031
   0.00000000  0.00000000  0.04539152       0.016
   0.02272682  0.01312134  0.04539152       0.062
   0.04545365  0.02624268  0.04539152       0.031
   0.00000000  0.02624268  0.04539152       0.031
   0.02272682  0.03936401  0.04539152       0.062
   0.04545365  0.05248535  0.04539152       0.031
   0.00000000  0.05248535  0.04539152       0.016

 k-points in reciprocal lattice and weights: Automatic mesh                          
   0.00000000  0.00000000  0.00000000       0.016
   0.25000000  0.00000000  0.00000000       0.062
   0.50000000  0.00000000  0.00000000       0.031
   0.00000000  0.25000000  0.00000000       0.031
   0.25000000  0.25000000  0.00000000       0.062
   0.50000000  0.25000000  0.00000000       0.031
   0.00000000  0.50000000  0.00000000       0.016
   0.00000000  0.00000000  0.25000000       0.031
   0.25000000  0.00000000  0.25000000       0.062
   0.50000000  0.00000000  0.25000000       0.062
  -0.25000000  0.00000000  0.25000000       0.062
   0.00000000  0.25000000  0.25000000       0.031
   0.25000000  0.25000000  0.25000000       0.062
   0.50000000  0.25000000  0.25000000       0.062
   0.00000000  0.50000000  0.25000000       0.031
   0.25000000  0.50000000  0.25000000       0.062
   0.00000000 -0.25000000  0.25000000       0.031
   0.00000000  0.00000000  0.50000000       0.016
   0.25000000  0.00000000  0.50000000       0.062
   0.50000000  0.00000000  0.50000000       0.031
   0.00000000  0.25000000  0.50000000       0.031
   0.25000000  0.25000000  0.50000000       0.062
   0.50000000  0.25000000  0.50000000       0.031
   0.00000000  0.50000000  0.50000000       0.016

 position of ions in fractional coordinates (direct lattice) 
   0.66666667  0.66666667  0.00000000
   0.00000000  0.66666667  0.00000000
   0.33333333  0.66666667  0.00000000
   0.66666667  0.00000000  0.00000000
   0.00600000  0.00000000  0.00000000
   0.33333333  0.00000000  0.00000000
   0.66666667  0.33333333  0.00000000
   0.00000000  0.33333333  0.00000000
   0.33333333  0.33333333  0.00000000
   0.66666667  0.66666667  0.50000000
   0.00000000  0.66666667  0.50000000
   0.33333333  0.66666667  0.50000000
   0.66666667  0.00000000  0.50000000
   0.00000000  0.00000000  0.50000000
   0.33333333  0.00000000  0.50000000
   0.66666667  0.33333333  0.50000000
   0.00000000  0.33333333  0.50000000
   0.33333333  0.33333333  0.50000000
   0.66666667  0.66666667  0.75000000
   0.00000000  0.66666667  0.75000000
   0.33333333  0.66666667  0.75000000
   0.66666667  0.00000000  0.75000000
   0.00000000  0.00000000  0.75000000
   0.33333333  0.00000000  0.75000000
   0.66666667  0.33333333  0.75000000
   0.00000000  0.33333333  0.75000000
   0.33333333  0.33333333  0.75000000
   0.66666667  0.66666667  0.25000000
   0.00000000  0.66666667  0.25000000
   0.33333333  0.66666667  0.25000000
   0.66666667  0.00000000  0.25000000
   0.00000000  0.00000000  0.25000000
   0.33333333  0.00000000  0.25000000
   0.66666667  0.33333333  0.25000000
   0.00000000  0.33333333  0.25000000
   0.33333333  0.33333333  0.25000000
   0.77777778  0.55555556  0.62500000
   0.11111111  0.55555556  0.62500000
   0.44444444  0.55555556  0.62500000
   0.77777778  0.88888889  0.62500000
   0.11111111  0.88888889  0.62500000
   0.44444444  0.88888889  0.62500000
   0.77777778  0.22222222  0.62500000
   0.11111111  0.22222222  0.62500000
   0.44444444  0.22222222  0.62500000
   0.77777778  0.55555556  0.12500000
   0.11111111  0.55555556  0.12500000
   0.44444444  0.55555556  0.12500000
   0.77777778  0.88888889  0.12500000
   0.11111111  0.88888889  0.12500000
   0.44444444  0.88888889  0.12500000
   0.77777778  0.22222222  0.12500000
   0.11111111  0.22222222  0.12500000
   0.44444444  0.22222222  0.12500000
   0.55555556  0.77777778  0.87500000
   0.88888889  0.77777778  0.87500000
   0.22222222  0.77777778  0.87500000
   0.55555556  0.11111111  0.87500000
   0.88888889  0.11111111  0.87500000
   0.22222222  0.11111111  0.87500000
   0.55555556  0.44444444  0.87500000
   0.88888889  0.44444444  0.87500000
   0.22222222  0.44444444  0.87500000
   0.55555556  0.77777778  0.37500000
   0.88888889  0.77777778  0.37500000
   0.22222222  0.77777778  0.37500000
   0.55555556  0.11111111  0.37500000
   0.88888889  0.11111111  0.37500000
   0.22222222  0.11111111  0.37500000
   0.55555556  0.44444444  0.37500000
   0.88888889  0.44444444  0.37500000
   0.22222222  0.44444444  0.37500000

 position of ions in cartesian coordinates  (Angst):
   3.66673905  6.35097833  0.00000000
  -3.66673905  6.35097833  0.00000000
  -0.00000000  6.35097833  0.00000000
   7.33347810  0.00000000  0.00000000
   0.06600130  0.00000000  0.00000000
   3.66673905  0.00000000  0.00000000
   5.50010857  3.17548916  0.00000000
  -1.83336952  3.17548916  0.00000000
   1.83336952  3.17548916  0.00000000
   3.66673905  6.35097833  5.50763655
  -3.66673905  6.35097833  5.50763655
  -0.00000000  6.35097833  5.50763655
   7.33347810  0.00000000  5.50763655
   0.00000000  0.00000000  5.50763655
   3.66673905  0.00000000  5.50763655
   5.50010857  3.17548916  5.50763655
  -1.83336952  3.17548916  5.50763655
   1.83336952  3.17548916  5.50763655
   3.66673905  6.35097833  8.26145483
  -3.66673905  6.35097833  8.26145483
  -0.00000000  6.35097833  8.26145483
   7.33347810  0.00000000  8.26145483
   0.00000000  0.00000000  8.26145483
   3.66673905  0.00000000  8.26145483
   5.50010857  3.17548916  8.26145483
  -1.83336952  3.17548916  8.26145483
   1.83336952  3.17548916  8.26145483
   3.66673905  6.35097833  2.75381828
  -3.66673905  6.35097833  2.75381828
  -0.00000000  6.35097833  2.75381828
   7.33347810  0.00000000  2.75381828
   0.00000000  0.00000000  2.75381828
   3.66673905  0.00000000  2.75381828
   5.50010857  3.17548916  2.75381828
  -1.83336952  3.17548916  2.75381828
   1.83336952  3.17548916  2.75381828
   5.50010857  5.29248194  6.88454569
  -1.83336952  5.29248194  6.88454569
   1.83336952  5.29248194  6.88454569
   3.66673905  8.46797111  6.88454569
  -3.66673905  8.46797111  6.88454569
  -0.00000000  8.46797111  6.88454569
   7.33347810  2.11699278  6.88454569
  -0.00000000  2.11699278  6.88454569
   3.66673905  2.11699278  6.88454569
   5.50010857  5.29248194  1.37690914
  -1.83336952  5.29248194  1.37690914
   1.83336952  5.29248194  1.37690914
   3.66673905  8.46797111  1.37690914
  -3.66673905  8.46797111  1.37690914
  -0.00000000  8.46797111  1.37690914
   7.33347810  2.11699278  1.37690914
  -0.00000000  2.11699278  1.37690914
   3.66673905  2.11699278  1.37690914
   1.83336952  7.40947472  9.63836396
   5.50010857  7.40947472  9.63836396
  -1.83336952  7.40947472  9.63836396
   5.50010857  1.05849639  9.63836396
   9.16684762  1.05849639  9.63836396
   1.83336952  1.05849639  9.63836396
   3.66673905  4.23398555  9.63836396
   7.33347810  4.23398555  9.63836396
  -0.00000000  4.23398555  9.63836396
   1.83336952  7.40947472  4.13072741
   5.50010857  7.40947472  4.13072741
  -1.83336952  7.40947472  4.13072741
   5.50010857  1.05849639  4.13072741
   9.16684762  1.05849639  4.13072741
   1.83336952  1.05849639  4.13072741
   3.66673905  4.23398555  4.13072741
   7.33347810  4.23398555  4.13072741
  -0.00000000  4.23398555  4.13072741



--------------------------------------------------------------------------------------------------------


 k-point  1 :   0.0000 0.0000 0.0000  plane waves:   14931
 k-point  2 :   0.2500 0.0000 0.0000  plane waves:   14982
 k-point  3 :   0.5000 0.0000 0.0000  plane waves:   15008
 k-point  4 :   0.0000 0.2500 0.0000  plane waves:   14982
 k-point  5 :   0.2500 0.2500 0.0000  plane waves:   14994
 k-point  6 :   0.5000 0.2500 0.0000  plane waves:   14994
 k-point  7 :   0.0000 0.5000 0.0000  plane waves:   15008
 k-point  8 :   0.0000 0.0000 0.2500  plane waves:   14990
 k-point  9 :   0.2500 0.0000 0.2500  plane waves:   15013
 k-point 10 :   0.5000 0.0000 0.2500  plane waves:   15002
 k-point 11 :  -0.2500 0.0000 0.2500  plane waves:   15013
 k-point 12 :   0.0000 0.2500 0.2500  plane waves:   15013
 k-point 13 :   0.2500 0.2500 0.2500  plane waves:   15003
 k-point 14 :   0.5000 0.2500 0.2500  plane waves:   15003
 k-point 15 :   0.0000 0.5000 0.2500  plane waves:   15002
 k-point 16 :   0.2500 0.5000 0.2500  plane waves:   15003
 k-point 17 :   0.0000-0.2500 0.2500  plane waves:   15013
 k-point 18 :   0.0000 0.0000 0.5000  plane waves:   14984
 k-point 19 :   0.2500 0.0000 0.5000  plane waves:   15008
 k-point 20 :   0.5000 0.0000 0.5000  plane waves:   15044
 k-point 21 :   0.0000 0.2500 0.5000  plane waves:   15008
 k-point 22 :   0.2500 0.2500 0.5000  plane waves:   15006
 k-point 23 :   0.5000 0.2500 0.5000  plane waves:   15006
 k-point 24 :   0.0000 0.5000 0.5000  plane waves:   15044

 maximum and minimum number of plane-waves per node :      3774     3707

 maximum number of plane-waves:     15044
 maximum index in each direction: 
   IXMAX=   16   IYMAX=   16   IZMAX=   16
   IXMIN=  -16   IYMIN=  -16   IZMIN=  -16

 NGX is ok and might be reduce to  66
 NGY is ok and might be reduce to  66
 NGZ is ok and might be reduce to  66

 real space projection operators:
  total allocation   :      41364.70 KBytes
  max/ min on nodes  :      10763.66       9929.98


 parallel 3D FFT for wavefunctions:
    minimum data exchange during FFTs selected (reduces bandwidth)
 parallel 3D FFT for charge:
    minimum data exchange during FFTs selected (reduces bandwidth)


 total amount of memory used by VASP on root node   334145. kBytes
========================================================================

   base      :      30000. kBytes
   nonlr-proj:      20526. kBytes
   fftplans  :      28296. kBytes
   grid      :      21369. kBytes
   one-center:        559. kBytes
   wavefun   :     233395. kBytes

     INWAV:  cpu time    0.0000: real time    0.0002
 Broyden mixing: mesh for mixing (old mesh)
   NGX = 33   NGY = 33   NGZ = 33
  (NGX  =140   NGY  =140   NGZ  =140)
  gives a total of  35937 points

 initial charge density was supplied:
 charge density of overlapping atoms calculated
 number of electron     432.0000000 magnetization      36.0000000
 keeping initial charge density in first step


--------------------------------------------------------------------------------------------------------


 Maximum index for non-local projection operator         1589
 Maximum index for augmentation-charges         6365 (set IRDMAX)


--------------------------------------------------------------------------------------------------------


 First call to EWALD:  gamma=   0.169
 Maximum number of real-space cells 3x 3x 3
 Maximum number of reciprocal cells 3x 3x 3

 FEWALD executed in parallel
    FEWALD:  cpu time    0.0200: real time    0.0180


----------------------------------------- Iteration    1(   1)  ---------------------------------------


    POTLOK:  cpu time    1.3000: real time    1.3017
    SETDIJ:  cpu time    1.7120: real time    1.7182
     EDDAV:  cpu time  753.4280: real time  754.8876
       DOS:  cpu time    0.0480: real time    0.0474
    --------------------------------------------
      LOOP:  cpu time  756.4920: real time  757.9643

 eigenvalue-minimisations  : 28864
 total energy-change (2. order) : 0.3258740E+04  (-0.1146579E+05)
 number of electron     432.0000000 magnetization      36.0000000
 augmentation part      432.0000000 magnetization      36.0000000

 Free energy of the ion-electron system (eV)
  ---------------------------------------------------
  alpha Z        PSCENC =      1700.89082154
  Ewald energy   TEWEN  =    -21122.86767902
  -Hartree energ DENC   =     -3902.60022510
  -exchange      EXHF   =         0.00000000
  -V(xc)+E(xc)   XCENC  =      -848.10859272
  PAW double counting   =     14295.91323732   -12980.49464661
  entropy T*S    EENTRO =         0.00024517
  eigenvalues    EBANDS =      4986.79799779
  atomic energy  EATOM  =     21129.20924906
  Solvation  Ediel_sol  =         0.00000000
  ---------------------------------------------------
  free energy    TOTEN  =      3258.74040743 eV

  energy without entropy =     3258.74016226  energy(sigma->0) =     3258.74032571


--------------------------------------------------------------------------------------------------------




----------------------------------------- Iteration    1(   2)  ---------------------------------------


     EDDAV:  cpu time  787.2560: real time  788.7144
       DOS:  cpu time    0.0480: real time    0.0472
    --------------------------------------------
      LOOP:  cpu time  787.3040: real time  788.7773

 eigenvalue-minimisations  : 28800
 total energy-change (2. order) :-0.3340071E+04  (-0.3208431E+04)
 number of electron     432.0000000 magnetization      36.0000000
 augmentation part      432.0000000 magnetization      36.0000000

 Free energy of the ion-electron system (eV)
  ---------------------------------------------------
  alpha Z        PSCENC =      1700.89082154
  Ewald energy   TEWEN  =    -21122.86767902
  -Hartree energ DENC   =     -3902.60022510
  -exchange      EXHF   =         0.00000000
  -V(xc)+E(xc)   XCENC  =      -848.10859272
  PAW double counting   =     14295.91323732   -12980.49464661
  entropy T*S    EENTRO =        -0.00031367
  eigenvalues    EBANDS =      1646.72799168
  atomic energy  EATOM  =     21129.20924906
  Solvation  Ediel_sol  =         0.00000000
  ---------------------------------------------------
  free energy    TOTEN  =       -81.33015752 eV

  energy without entropy =      -81.32984385  energy(sigma->0) =      -81.33005296


--------------------------------------------------------------------------------------------------------




----------------------------------------- Iteration    1(   3)  ---------------------------------------


     EDDAV:  cpu time 1075.6480: real time 1077.4030
       DOS:  cpu time    0.0600: real time    0.0603
    --------------------------------------------
      LOOP:  cpu time 1075.7200: real time 1077.4835

 eigenvalue-minimisations  : 42424
 total energy-change (2. order) :-0.4205514E+03  (-0.3768437E+03)
 number of electron     432.0000000 magnetization      36.0000000
 augmentation part      432.0000000 magnetization      36.0000000

 Free energy of the ion-electron system (eV)
  ---------------------------------------------------
  alpha Z        PSCENC =      1700.89082154
  Ewald energy   TEWEN  =    -21122.86767902
  -Hartree energ DENC   =     -3902.60022510
  -exchange      EXHF   =         0.00000000
  -V(xc)+E(xc)   XCENC  =      -848.10859272
  PAW double counting   =     14295.91323732   -12980.49464661
  entropy T*S    EENTRO =        -0.06498424
  eigenvalues    EBANDS =      1226.24126766
  atomic energy  EATOM  =     21129.20924906
  Solvation  Ediel_sol  =         0.00000000
  ---------------------------------------------------
  free energy    TOTEN  =      -501.88155211 eV

  energy without entropy =     -501.81656787  energy(sigma->0) =     -501.85989069


--------------------------------------------------------------------------------------------------------




----------------------------------------- Iteration    1(   4)  ---------------------------------------


     EDDAV:  cpu time 1156.0480: real time 1158.0424
       DOS:  cpu time    0.0600: real time    0.0619
    --------------------------------------------
      LOOP:  cpu time 1156.1240: real time 1158.1556

 eigenvalue-minimisations  : 46224
 total energy-change (2. order) :-0.4217817E+02  (-0.3739007E+02)
 number of electron     432.0000000 magnetization      36.0000000
 augmentation part      432.0000000 magnetization      36.0000000

 Free energy of the ion-electron system (eV)
  ---------------------------------------------------
  alpha Z        PSCENC =      1700.89082154
  Ewald energy   TEWEN  =    -21122.86767902
  -Hartree energ DENC   =     -3902.60022510
  -exchange      EXHF   =         0.00000000
  -V(xc)+E(xc)   XCENC  =      -848.10859272
  PAW double counting   =     14295.91323732   -12980.49464661
  entropy T*S    EENTRO =        -0.05653932
  eigenvalues    EBANDS =      1184.05464798
  atomic energy  EATOM  =     21129.20924906
  Solvation  Ediel_sol  =         0.00000000
  ---------------------------------------------------
  free energy    TOTEN  =      -544.05972687 eV

  energy without entropy =     -544.00318755  energy(sigma->0) =     -544.04088043


--------------------------------------------------------------------------------------------------------




----------------------------------------- Iteration    1(   5)  ---------------------------------------


     EDDAV:  cpu time 1210.1160: real time 1212.0863
       DOS:  cpu time    0.0600: real time    0.0596
    CHARGE:  cpu time   43.9280: real time   44.0019
    MIXING:  cpu time    0.1400: real time    0.1368
    --------------------------------------------
      LOOP:  cpu time 1254.2600: real time 1256.3200

 eigenvalue-minimisations  : 48752
 total energy-change (2. order) :-0.2870109E+01  (-0.2708589E+01)
 number of electron     432.0000001 magnetization      39.8235071
 augmentation part       60.2073649 magnetization      21.5383441

 Broyden mixing:
  rms(total) = 0.61297E+01    rms(broyden)= 0.61280E+01
  rms(prec ) = 0.79580E+01
  weight for this iteration     100.00

 Free energy of the ion-electron system (eV)
  ---------------------------------------------------
  alpha Z        PSCENC =      1700.89082154
  Ewald energy   TEWEN  =    -21122.86767902
  -Hartree energ DENC   =     -3902.60022510
  -exchange      EXHF   =         0.00000000
  -V(xc)+E(xc)   XCENC  =      -848.10859272
  PAW double counting   =     14295.91323732   -12980.49464661
  entropy T*S    EENTRO =        -0.05283973
  eigenvalues    EBANDS =      1181.18083923
  atomic energy  EATOM  =     21129.20924906
  Solvation  Ediel_sol  =         0.00000000
  ---------------------------------------------------
  free energy    TOTEN  =      -546.92983603 eV

  energy without entropy =     -546.87699630  energy(sigma->0) =     -546.91222279


--------------------------------------------------------------------------------------------------------




----------------------------------------- Iteration    1(   6)  ---------------------------------------


    POTLOK:  cpu time    1.5040: real time    1.5067
    SETDIJ:  cpu time    2.0480: real time    2.0541
     EDDAV:  cpu time 1101.5000: real time 1103.5428
       DOS:  cpu time    0.0560: real time    0.0575
    CHARGE:  cpu time   43.6120: real time   43.6951
    MIXING:  cpu time    0.1160: real time    0.1123
    --------------------------------------------
      LOOP:  cpu time 1148.8360: real time 1150.9813

 eigenvalue-minimisations  : 43684
 total energy-change (2. order) :-0.6585946E+02  (-0.1403589E+03)
 number of electron     432.0000004 magnetization      39.6405222
 augmentation part      144.3756867 magnetization      33.8378672

 Broyden mixing:
  rms(total) = 0.92570E+01    rms(broyden)= 0.92557E+01
  rms(prec ) = 0.12461E+02
  weight for this iteration     100.00

 eigenvalues of (default mixing * dielectric matrix)
  average eigenvalue GAMMA=   0.4152
  0.4152

 Free energy of the ion-electron system (eV)
  ---------------------------------------------------
  alpha Z        PSCENC =      1700.89082154
  Ewald energy   TEWEN  =    -21122.86767902
  -Hartree energ DENC   =     -3180.43346099
  -exchange      EXHF   =         0.00000000
  -V(xc)+E(xc)   XCENC  =      -859.98106627
  PAW double counting   =     13313.29148775   -11916.93184110
  entropy T*S    EENTRO =        -0.23663598
  eigenvalues    EBANDS =       324.26983104
  atomic energy  EATOM  =     21129.20924906
  Solvation  Ediel_sol  =         0.00000000
  ---------------------------------------------------
  free energy    TOTEN  =      -612.78929398 eV

  energy without entropy =     -612.55265800  energy(sigma->0) =     -612.71041532


--------------------------------------------------------------------------------------------------------




----------------------------------------- Iteration    1(   7)  ---------------------------------------


    POTLOK:  cpu time    1.5120: real time    1.5167
    SETDIJ:  cpu time    2.0480: real time    2.0510
     EDDAV:  cpu time 1134.3160: real time 1136.3720
       DOS:  cpu time    0.0640: real time    0.0612
    CHARGE:  cpu time   44.9160: real time   44.9963
    MIXING:  cpu time    0.1120: real time    0.1157
    --------------------------------------------
      LOOP:  cpu time 1182.9680: real time 1185.1389

 eigenvalue-minimisations  : 45236
 total energy-change (2. order) : 0.1160669E+03  (-0.6138662E+02)
 number of electron     432.0000002 magnetization      37.3712581
 augmentation part       86.2342147 magnetization      16.8323640

 Broyden mixing:
  rms(total) = 0.26527E+01    rms(broyden)= 0.26507E+01
  rms(prec ) = 0.29022E+01
  weight for this iteration     100.00

 eigenvalues of (default mixing * dielectric matrix)
  average eigenvalue GAMMA=   0.5277
  0.3749  0.6805

 Free energy of the ion-electron system (eV)
  ---------------------------------------------------
  alpha Z        PSCENC =      1700.89082154
  Ewald energy   TEWEN  =    -21122.86767902
  -Hartree energ DENC   =     -3618.30769014
  -exchange      EXHF   =         0.00000000
  -V(xc)+E(xc)   XCENC  =      -845.74062618
  PAW double counting   =     14404.80895453   -13085.31000311
  entropy T*S    EENTRO =         0.00702536
  eigenvalues    EBANDS =       940.58758766
  atomic energy  EATOM  =     21129.20924906
  Solvation  Ediel_sol  =         0.00000000
  ---------------------------------------------------
  free energy    TOTEN  =      -496.72236030 eV

  energy without entropy =     -496.72938566  energy(sigma->0) =     -496.72470208


--------------------------------------------------------------------------------------------------------




----------------------------------------- Iteration    1(   8)  ---------------------------------------


    POTLOK:  cpu time    1.5040: real time    1.5072
    SETDIJ:  cpu time    2.0480: real time    2.0537
     EDDAV:  cpu time 1074.7520: real time 1076.7310
       DOS:  cpu time    0.0560: real time    0.0552
    CHARGE:  cpu time   41.6520: real time   41.7223
    MIXING:  cpu time    0.1320: real time    0.1323
    --------------------------------------------
      LOOP:  cpu time 1120.1520: real time 1122.2220

 eigenvalue-minimisations  : 42640
 total energy-change (2. order) :-0.5347443E+01  (-0.4762712E+01)
 number of electron     432.0000002 magnetization      34.5616886
 augmentation part       84.0667716 magnetization      14.8933230

 Broyden mixing:
  rms(total) = 0.34710E+01    rms(broyden)= 0.34708E+01
  rms(prec ) = 0.44000E+01
  weight for this iteration     100.00

 eigenvalues of (default mixing * dielectric matrix)
  average eigenvalue GAMMA=   0.4670
  0.9365  0.3778  0.0866

 Free energy of the ion-electron system (eV)
  ---------------------------------------------------
  alpha Z        PSCENC =      1700.89082154
  Ewald energy   TEWEN  =    -21122.86767902
  -Hartree energ DENC   =     -3628.31801605
  -exchange      EXHF   =         0.00000000
  -V(xc)+E(xc)   XCENC  =      -848.73846033
  PAW double counting   =     14353.11045967   -13030.81333912
  entropy T*S    EENTRO =        -0.00670618
  eigenvalues    EBANDS =       945.46386692
  atomic energy  EATOM  =     21129.20924906
  Solvation  Ediel_sol  =         0.00000000
  ---------------------------------------------------
  free energy    TOTEN  =      -502.06980350 eV

  energy without entropy =     -502.06309732  energy(sigma->0) =     -502.06756810


--------------------------------------------------------------------------------------------------------




----------------------------------------- Iteration    1(   9)  ---------------------------------------


    POTLOK:  cpu time    1.5160: real time    1.5197
    SETDIJ:  cpu time    2.0880: real time    2.0906
     EDDAV:  cpu time 1192.9920: real time 1195.1722
       DOS:  cpu time    0.0560: real time    0.0572
    CHARGE:  cpu time   41.3800: real time   41.4529
    MIXING:  cpu time    0.1520: real time    0.1532
    --------------------------------------------
      LOOP:  cpu time 1238.1880: real time 1240.4514

 eigenvalue-minimisations  : 48120
 total energy-change (2. order) : 0.3473219E+01  (-0.5299652E+00)
 number of electron     432.0000002 magnetization      36.5274333
 augmentation part       84.1015759 magnetization      17.7643636

 Broyden mixing:
  rms(total) = 0.28864E+01    rms(broyden)= 0.28861E+01
  rms(prec ) = 0.31833E+01
  weight for this iteration     100.00

 eigenvalues of (default mixing * dielectric matrix)
  average eigenvalue GAMMA=   0.4878
  0.7479  0.7479  0.3658  0.0898

 Free energy of the ion-electron system (eV)
  ---------------------------------------------------
  alpha Z        PSCENC =      1700.89082154
  Ewald energy   TEWEN  =    -21122.86767902
  -Hartree energ DENC   =     -3637.77633304
  -exchange      EXHF   =         0.00000000
  -V(xc)+E(xc)   XCENC  =      -851.62635879
  PAW double counting   =     14298.02581172   -12972.32044032
  entropy T*S    EENTRO =        -0.04685087
  eigenvalues    EBANDS =       957.91519487
  atomic energy  EATOM  =     21129.20924906
  Solvation  Ediel_sol  =         0.00000000
  ---------------------------------------------------
  free energy    TOTEN  =      -498.59658485 eV

  energy without entropy =     -498.54973398  energy(sigma->0) =     -498.58096789


--------------------------------------------------------------------------------------------------------




----------------------------------------- Iteration    1(  10)  ---------------------------------------


    POTLOK:  cpu time    1.5200: real time    1.5250
    SETDIJ:  cpu time    2.1120: real time    2.1136
     EDDAV:  cpu time 1242.4880: real time 1244.6291
       DOS:  cpu time    0.0600: real time    0.0628
    CHARGE:  cpu time   44.1800: real time   44.2462
    MIXING:  cpu time    0.1160: real time    0.1176
    --------------------------------------------
      LOOP:  cpu time 1290.4800: real time 1292.7001

 eigenvalue-minimisations  : 50696
 total energy-change (2. order) :-0.1899712E+01  (-0.1227730E+00)
 number of electron     432.0000002 magnetization      47.0868424
 augmentation part       83.3868944 magnetization      27.6618299

 Broyden mixing:
  rms(total) = 0.31422E+01    rms(broyden)= 0.31421E+01
  rms(prec ) = 0.37909E+01
  weight for this iteration     100.00

 eigenvalues of (default mixing * dielectric matrix)
  average eigenvalue GAMMA=   0.5690
  1.1444  1.1444  0.3637  0.1098  0.0825

 Free energy of the ion-electron system (eV)
  ---------------------------------------------------
  alpha Z        PSCENC =      1700.89082154
  Ewald energy   TEWEN  =    -21122.86767902
  -Hartree energ DENC   =     -3635.92096306
  -exchange      EXHF   =         0.00000000
  -V(xc)+E(xc)   XCENC  =      -850.31809117
  PAW double counting   =     14318.54201666   -12994.89757871
  entropy T*S    EENTRO =        -0.06190080
  eigenvalues    EBANDS =       954.92782875
  atomic energy  EATOM  =     21129.20924906
  Solvation  Ediel_sol  =         0.00000000
  ---------------------------------------------------
  free energy    TOTEN  =      -500.49629674 eV

  energy without entropy =     -500.43439595  energy(sigma->0) =     -500.47566314


--------------------------------------------------------------------------------------------------------




----------------------------------------- Iteration    1(  11)  ---------------------------------------


    POTLOK:  cpu time    1.5200: real time    1.5241
    SETDIJ:  cpu time    2.0560: real time    2.0613
     EDDAV:  cpu time 1233.6720: real time 1235.9119
       DOS:  cpu time    0.0640: real time    0.0620
    CHARGE:  cpu time   44.5560: real time   44.6329
    MIXING:  cpu time    0.1400: real time    0.1384
    --------------------------------------------
      LOOP:  cpu time 1282.0120: real time 1284.3510

 eigenvalue-minimisations  : 50464
 total energy-change (2. order) :-0.5485293E+01  (-0.8100043E+00)
 number of electron     432.0000002 magnetization      65.9984649
 augmentation part       80.5011708 magnetization      42.1432773

 Broyden mixing:
  rms(total) = 0.31113E+01    rms(broyden)= 0.31111E+01
  rms(prec ) = 0.36186E+01
  weight for this iteration     100.00

 eigenvalues of (default mixing * dielectric matrix)
  average eigenvalue GAMMA=   0.7009
  1.6557  1.6557  0.4087  0.3038  0.0991  0.0822

 Free energy of the ion-electron system (eV)
  ---------------------------------------------------
  alpha Z        PSCENC =      1700.89082154
  Ewald energy   TEWEN  =    -21122.86767902
  -Hartree energ DENC   =     -3624.53623305
  -exchange      EXHF   =         0.00000000
  -V(xc)+E(xc)   XCENC  =      -842.03638040
  PAW double counting   =     14414.84874314   -13101.48554503
  entropy T*S    EENTRO =         0.08669247
  eigenvalues    EBANDS =       939.90874158
  atomic energy  EATOM  =     21129.20924906
  Solvation  Ediel_sol  =         0.00000000
  ---------------------------------------------------
  free energy    TOTEN  =      -505.98158972 eV

  energy without entropy =     -506.06828219  energy(sigma->0) =     -506.01048721


--------------------------------------------------------------------------------------------------------




----------------------------------------- Iteration    1(  12)  ---------------------------------------


    POTLOK:  cpu time    1.5200: real time    1.5224
    SETDIJ:  cpu time    2.0440: real time    2.0451
     EDDAV:  cpu time 1225.6040: real time 1227.8105
       DOS:  cpu time    0.0560: real time    0.0567
    CHARGE:  cpu time   44.3360: real time   44.4133
    MIXING:  cpu time    0.1240: real time    0.1271
    --------------------------------------------
      LOOP:  cpu time 1273.6880: real time 1275.9800

 eigenvalue-minimisations  : 50160
 total energy-change (2. order) :-0.7883200E+01  (-0.1301945E+01)
 number of electron     432.0000002 magnetization      73.3029677
 augmentation part       80.2777179 magnetization      46.0359269

 Broyden mixing:
  rms(total) = 0.28685E+01    rms(broyden)= 0.28681E+01
  rms(prec ) = 0.38223E+01
  weight for this iteration     100.00

 eigenvalues of (default mixing * dielectric matrix)
  average eigenvalue GAMMA=   0.6526
  1.7567  1.7567  0.4104  0.2778  0.1857  0.0973  0.0832

 Free energy of the ion-electron system (eV)
  ---------------------------------------------------
  alpha Z        PSCENC =      1700.89082154
  Ewald energy   TEWEN  =    -21122.86767902
  -Hartree energ DENC   =     -3586.33575916
  -exchange      EXHF   =         0.00000000
  -V(xc)+E(xc)   XCENC  =      -822.62408907
  PAW double counting   =     14509.92155623   -13210.58279461
  entropy T*S    EENTRO =         0.03972156
  eigenvalues    EBANDS =       888.48418364
  atomic energy  EATOM  =     21129.20924906
  Solvation  Ediel_sol  =         0.00000000
  ---------------------------------------------------
  free energy    TOTEN  =      -513.86478983 eV

  energy without entropy =     -513.90451140  energy(sigma->0) =     -513.87803036


--------------------------------------------------------------------------------------------------------




----------------------------------------- Iteration    1(  13)  ---------------------------------------


    POTLOK:  cpu time    1.5360: real time    1.5370
    SETDIJ:  cpu time    2.0240: real time    2.0287
     EDDAV:  cpu time 1257.2000: real time 1259.4211
       DOS:  cpu time    0.0600: real time    0.0582
    CHARGE:  cpu time   44.7120: real time   44.7970
    MIXING:  cpu time    0.1080: real time    0.1068
    --------------------------------------------
      LOOP:  cpu time 1305.6400: real time 1307.9538

 eigenvalue-minimisations  : 51728
 total energy-change (2. order) : 0.6041022E+00  (-0.7024843E+00)
 number of electron     432.0000002 magnetization      78.2829299
 augmentation part       80.9781846 magnetization      49.9000457

 Broyden mixing:
  rms(total) = 0.20925E+01    rms(broyden)= 0.20922E+01
  rms(prec ) = 0.26547E+01
  weight for this iteration     100.00

 eigenvalues of (default mixing * dielectric matrix)
  average eigenvalue GAMMA=   0.6921
  1.8981  1.8981  0.5414  0.5414  0.3525  0.0828  0.0975  0.1252

 Free energy of the ion-electron system (eV)
  ---------------------------------------------------
  alpha Z        PSCENC =      1700.89082154
  Ewald energy   TEWEN  =    -21122.86767902
  -Hartree energ DENC   =     -3568.23259115
  -exchange      EXHF   =         0.00000000
  -V(xc)+E(xc)   XCENC  =      -813.55452864
  PAW double counting   =     14546.00534778   -13251.90093976
  entropy T*S    EENTRO =         0.02809703
  eigenvalues    EBANDS =       867.16153558
  atomic energy  EATOM  =     21129.20924906
  Solvation  Ediel_sol  =         0.00000000
  ---------------------------------------------------
  free energy    TOTEN  =      -513.26068759 eV

  energy without entropy =     -513.28878461  energy(sigma->0) =     -513.27005326


--------------------------------------------------------------------------------------------------------




----------------------------------------- Iteration    1(  14)  ---------------------------------------


    POTLOK:  cpu time    1.5240: real time    1.5260
    SETDIJ:  cpu time    2.0160: real time    2.0188
     EDDAV:  cpu time 1241.5320: real time 1243.8070
       DOS:  cpu time    0.0520: real time    0.0532
    CHARGE:  cpu time   44.9200: real time   44.9988
    MIXING:  cpu time    0.1240: real time    0.1234
    --------------------------------------------
      LOOP:  cpu time 1290.1680: real time 1292.5331

 eigenvalue-minimisations  : 50968
 total energy-change (2. order) : 0.5296058E+00  (-0.3858500E+00)
 number of electron     432.0000002 magnetization      82.5714221
 augmentation part       82.7852827 magnetization      54.2973728

 Broyden mixing:
  rms(total) = 0.18936E+01    rms(broyden)= 0.18934E+01
  rms(prec ) = 0.25151E+01
  weight for this iteration     100.00

 eigenvalues of (default mixing * dielectric matrix)
  average eigenvalue GAMMA=   0.6690
  1.9396  1.9396  0.6319  0.6319  0.3540  0.2141  0.0827  0.0983  0.1292

 Free energy of the ion-electron system (eV)
  ---------------------------------------------------
  alpha Z        PSCENC =      1700.89082154
  Ewald energy   TEWEN  =    -21122.86767902
  -Hartree energ DENC   =     -3552.85824923
  -exchange      EXHF   =         0.00000000
  -V(xc)+E(xc)   XCENC  =      -808.57252258
  PAW double counting   =     14594.71440425   -13304.25030772
  entropy T*S    EENTRO =         0.02998299
  eigenvalues    EBANDS =       850.97321893
  atomic energy  EATOM  =     21129.20924906
  Solvation  Ediel_sol  =         0.00000000
  ---------------------------------------------------
  free energy    TOTEN  =      -512.73108177 eV

  energy without entropy =     -512.76106476  energy(sigma->0) =     -512.74107610


--------------------------------------------------------------------------------------------------------




----------------------------------------- Iteration    1(  15)  ---------------------------------------


    POTLOK:  cpu time    1.5160: real time    1.5166
    SETDIJ:  cpu time    2.0400: real time    2.0428
     EDDAV:  cpu time 1267.9960: real time 1270.1960
       DOS:  cpu time    0.0600: real time    0.0616
    CHARGE:  cpu time   45.7320: real time   45.8022
    MIXING:  cpu time    0.1480: real time    0.1491
    --------------------------------------------
      LOOP:  cpu time 1317.4920: real time 1319.7759

 eigenvalue-minimisations  : 52216
 total energy-change (2. order) : 0.2079336E+01  (-0.4510477E+00)
 number of electron     432.0000002 magnetization      91.2505708
 augmentation part       84.9222948 magnetization      62.9265650

 Broyden mixing:
  rms(total) = 0.13198E+01    rms(broyden)= 0.13196E+01
  rms(prec ) = 0.16338E+01
  weight for this iteration     100.00

 eigenvalues of (default mixing * dielectric matrix)
  average eigenvalue GAMMA=   0.7648
  2.2037  2.2037  0.9643  0.9643  0.5030  0.3439  0.1600  0.0827  0.0980  0.1246

 Free energy of the ion-electron system (eV)
  ---------------------------------------------------
  alpha Z        PSCENC =      1700.89082154
  Ewald energy   TEWEN  =    -21122.86767902
  -Hartree energ DENC   =     -3539.15889618
  -exchange      EXHF   =         0.00000000
  -V(xc)+E(xc)   XCENC  =      -804.97063044
  PAW double counting   =     14649.81051682   -13362.49622177
  entropy T*S    EENTRO =         0.02611223
  eigenvalues    EBANDS =       838.90498184
  atomic energy  EATOM  =     21129.20924906
  Solvation  Ediel_sol  =         0.00000000
  ---------------------------------------------------
  free energy    TOTEN  =      -510.65174593 eV

  energy without entropy =     -510.67785815  energy(sigma->0) =     -510.66045000


--------------------------------------------------------------------------------------------------------




----------------------------------------- Iteration    1(  16)  ---------------------------------------


    POTLOK:  cpu time    1.5320: real time    1.5348
    SETDIJ:  cpu time    2.0200: real time    2.0230
     EDDAV:  cpu time 1194.6440: real time 1196.8575
       DOS:  cpu time    0.0640: real time    0.0628
    CHARGE:  cpu time   44.7560: real time   44.8272
    MIXING:  cpu time    0.1400: real time    0.1402
    --------------------------------------------
      LOOP:  cpu time 1243.1560: real time 1245.4499

 eigenvalue-minimisations  : 48560
 total energy-change (2. order) : 0.8968426E+00  (-0.7555994E+00)
 number of electron     432.0000002 magnetization      95.0530726
 augmentation part       88.7651727 magnetization      66.9575256

 Broyden mixing:
  rms(total) = 0.89651E+00    rms(broyden)= 0.89629E+00
  rms(prec ) = 0.11770E+01
  weight for this iteration     100.00

 eigenvalues of (default mixing * dielectric matrix)
  average eigenvalue GAMMA=   0.7405
  2.2559  2.2559  1.0252  1.0252  0.4681  0.3373  0.3137  0.0827  0.0980  0.1575
  0.1261

 Free energy of the ion-electron system (eV)
  ---------------------------------------------------
  alpha Z        PSCENC =      1700.89082154
  Ewald energy   TEWEN  =    -21122.86767902
  -Hartree energ DENC   =     -3523.05610857
  -exchange      EXHF   =         0.00000000
  -V(xc)+E(xc)   XCENC  =      -798.52223288
  PAW double counting   =     14762.06620464   -13481.29322866
  entropy T*S    EENTRO =         0.02855836
  eigenvalues    EBANDS =       823.78951226
  atomic energy  EATOM  =     21129.20924906
  Solvation  Ediel_sol  =         0.00000000
  ---------------------------------------------------
  free energy    TOTEN  =      -509.75490328 eV

  energy without entropy =     -509.78346164  energy(sigma->0) =     -509.76442273


--------------------------------------------------------------------------------------------------------




----------------------------------------- Iteration    1(  17)  ---------------------------------------


    POTLOK:  cpu time    1.5200: real time    1.5228
    SETDIJ:  cpu time    2.0360: real time    2.0398
     EDDAV:  cpu time 1243.4480: real time 1245.6507
       DOS:  cpu time    0.0600: real time    0.0582
    CHARGE:  cpu time   43.2560: real time   43.3305
    MIXING:  cpu time    0.1520: real time    0.1491
    --------------------------------------------
      LOOP:  cpu time 1290.4760: real time 1292.7573

 eigenvalue-minimisations  : 50824
 total energy-change (2. order) : 0.1962902E+00  (-0.2418110E+00)
 number of electron     432.0000002 magnetization     101.3663490
 augmentation part       89.9829067 magnetization      73.1591952

 Broyden mixing:
  rms(total) = 0.44309E+00    rms(broyden)= 0.44289E+00
  rms(prec ) = 0.51114E+00
  weight for this iteration     100.00

 eigenvalues of (default mixing * dielectric matrix)
  average eigenvalue GAMMA=   0.7631
  2.1294  2.1294  1.2977  1.2977  0.6605  0.6605  0.3451  0.0827  0.0980  0.1255
  0.1588  0.1724

 Free energy of the ion-electron system (eV)
  ---------------------------------------------------
  alpha Z        PSCENC =      1700.89082154
  Ewald energy   TEWEN  =    -21122.86767902
  -Hartree energ DENC   =     -3518.00611773
  -exchange      EXHF   =         0.00000000
  -V(xc)+E(xc)   XCENC  =      -795.15495042
  PAW double counting   =     14805.70587938   -13527.74464579
  entropy T*S    EENTRO =         0.03370287
  eigenvalues    EBANDS =       818.37512699
  atomic energy  EATOM  =     21129.20924906
  Solvation  Ediel_sol  =         0.00000000
  ---------------------------------------------------
  free energy    TOTEN  =      -509.55861312 eV

  energy without entropy =     -509.59231600  energy(sigma->0) =     -509.56984741


--------------------------------------------------------------------------------------------------------




----------------------------------------- Iteration    1(  18)  ---------------------------------------


    POTLOK:  cpu time    1.4840: real time    1.4862
    SETDIJ:  cpu time    2.0680: real time    2.0723
     EDDAV:  cpu time 1229.0400: real time 1231.2584
       DOS:  cpu time    0.0560: real time    0.0564
    CHARGE:  cpu time   43.5040: real time   43.5795
    MIXING:  cpu time    0.1520: real time    0.1540
    --------------------------------------------
      LOOP:  cpu time 1276.3040: real time 1278.6119

 eigenvalue-minimisations  : 50264
 total energy-change (2. order) :-0.2831267E+00  (-0.8275350E-01)
 number of electron     432.0000002 magnetization     102.7363025
 augmentation part       90.4961900 magnetization      74.0085987

 Broyden mixing:
  rms(total) = 0.33112E+00    rms(broyden)= 0.33097E+00
  rms(prec ) = 0.45696E+00
  weight for this iteration     100.00

 eigenvalues of (default mixing * dielectric matrix)
  average eigenvalue GAMMA=   0.7297
  2.0935  2.0935  1.6048  0.9791  0.7332  0.7332  0.3449  0.2641  0.0827  0.0980
  0.1255  0.1578  0.1756

 Free energy of the ion-electron system (eV)
  ---------------------------------------------------
  alpha Z        PSCENC =      1700.89082154
  Ewald energy   TEWEN  =    -21122.86767902
  -Hartree energ DENC   =     -3513.75327174
  -exchange      EXHF   =         0.00000000
  -V(xc)+E(xc)   XCENC  =      -788.11529956
  PAW double counting   =     14858.86804662   -13585.55298055
  entropy T*S    EENTRO =         0.02599757
  eigenvalues    EBANDS =       811.45337626
  atomic energy  EATOM  =     21129.20924906
  Solvation  Ediel_sol  =         0.00000000
  ---------------------------------------------------
  free energy    TOTEN  =      -509.84173984 eV

  energy without entropy =     -509.86773740  energy(sigma->0) =     -509.85040569


--------------------------------------------------------------------------------------------------------




----------------------------------------- Iteration    1(  19)  ---------------------------------------


    POTLOK:  cpu time    1.4880: real time    1.4935
    SETDIJ:  cpu time    2.0360: real time    2.0374
     EDDAV:  cpu time 1219.0920: real time 1220.9903
       DOS:  cpu time    0.0560: real time    0.0539
    CHARGE:  cpu time   44.5720: real time   44.6409
    MIXING:  cpu time    0.1600: real time    0.1576
    --------------------------------------------
      LOOP:  cpu time 1267.4080: real time 1269.3807

 eigenvalue-minimisations  : 49712
 total energy-change (2. order) : 0.4778747E-01  (-0.2802835E-01)
 number of electron     432.0000002 magnetization     103.1414646
 augmentation part       90.5209460 magnetization      74.2730962

 Broyden mixing:
  rms(total) = 0.17696E+00    rms(broyden)= 0.17688E+00
  rms(prec ) = 0.22946E+00
  weight for this iteration     100.00

 eigenvalues of (default mixing * dielectric matrix)
  average eigenvalue GAMMA=   0.7415
  2.0813  2.0813  1.7186  1.0725  1.0725  0.6388  0.5486  0.3452  0.0827  0.0980
  0.1255  0.1869  0.1586  0.1697

 Free energy of the ion-electron system (eV)
  ---------------------------------------------------
  alpha Z        PSCENC =      1700.89082154
  Ewald energy   TEWEN  =    -21122.86767902
  -Hartree energ DENC   =     -3512.85308985
  -exchange      EXHF   =         0.00000000
  -V(xc)+E(xc)   XCENC  =      -786.58684629
  PAW double counting   =     14870.87837686   -13598.55863566
  entropy T*S    EENTRO =         0.02175076
  eigenvalues    EBANDS =       810.07210023
  atomic energy  EATOM  =     21129.20924906
  Solvation  Ediel_sol  =         0.00000000
  ---------------------------------------------------
  free energy    TOTEN  =      -509.79395237 eV

  energy without entropy =     -509.81570313  energy(sigma->0) =     -509.80120262


--------------------------------------------------------------------------------------------------------




----------------------------------------- Iteration    1(  20)  ---------------------------------------


    POTLOK:  cpu time    1.4800: real time    1.4835
    SETDIJ:  cpu time    2.0480: real time    2.0496
     EDDAV:  cpu time 1163.5640: real time 1165.6945
       DOS:  cpu time    0.0560: real time    0.0590
    CHARGE:  cpu time   44.6000: real time   44.6774
    MIXING:  cpu time    0.1440: real time    0.1455
    --------------------------------------------
      LOOP:  cpu time 1211.8960: real time 1214.1147

 eigenvalue-minimisations  : 46960
 total energy-change (2. order) : 0.1270465E-01  (-0.5687306E-02)
 number of electron     432.0000002 magnetization     103.4441410
 augmentation part       90.3469661 magnetization      74.4607547

 Broyden mixing:
  rms(total) = 0.11856E+00    rms(broyden)= 0.11854E+00
  rms(prec ) = 0.16675E+00
  weight for this iteration     100.00

 eigenvalues of (default mixing * dielectric matrix)
  average eigenvalue GAMMA=   0.7599
  2.0059  2.0059  1.6030  1.3847  1.3847  0.6138  0.6138  0.6160  0.3451  0.0827
  0.0980  0.1255  0.1904  0.1581  0.1711

 Free energy of the ion-electron system (eV)
  ---------------------------------------------------
  alpha Z        PSCENC =      1700.89082154
  Ewald energy   TEWEN  =    -21122.86767902
  -Hartree energ DENC   =     -3512.28855473
  -exchange      EXHF   =         0.00000000
  -V(xc)+E(xc)   XCENC  =      -786.41143334
  PAW double counting   =     14876.82672452   -13604.78183831
  entropy T*S    EENTRO =         0.01839182
  eigenvalues    EBANDS =       809.62307075
  atomic energy  EATOM  =     21129.20924906
  Solvation  Ediel_sol  =         0.00000000
  ---------------------------------------------------
  free energy    TOTEN  =      -509.78124772 eV

  energy without entropy =     -509.79963954  energy(sigma->0) =     -509.78737832


--------------------------------------------------------------------------------------------------------




----------------------------------------- Iteration    1(  21)  ---------------------------------------


    POTLOK:  cpu time    1.4880: real time    1.4903
    SETDIJ:  cpu time    2.0320: real time    2.0369
     EDDAV:  cpu time 1280.7040: real time 1282.9930
       DOS:  cpu time    0.0640: real time    0.0653
    CHARGE:  cpu time   43.8920: real time   43.9656
    MIXING:  cpu time    0.1320: real time    0.1325
    --------------------------------------------
      LOOP:  cpu time 1328.3160: real time 1330.6898

 eigenvalue-minimisations  : 52504
 total energy-change (2. order) :-0.2475001E-03  (-0.4372430E-02)
 number of electron     432.0000002 magnetization     104.0082290
 augmentation part       90.2228461 magnetization      74.9438112

 Broyden mixing:
  rms(total) = 0.11124E+00    rms(broyden)= 0.11123E+00
  rms(prec ) = 0.16081E+00
  weight for this iteration     100.00

 eigenvalues of (default mixing * dielectric matrix)
  average eigenvalue GAMMA=   0.7597
  1.9453  1.9453  1.7945  1.7945  1.1825  0.7867  0.7332  0.6002  0.3451  0.0827
  0.0980  0.1255  0.1581  0.1726  0.1878  0.2033

 Free energy of the ion-electron system (eV)
  ---------------------------------------------------
  alpha Z        PSCENC =      1700.89082154
  Ewald energy   TEWEN  =    -21122.86767902
  -Hartree energ DENC   =     -3512.25624001
  -exchange      EXHF   =         0.00000000
  -V(xc)+E(xc)   XCENC  =      -786.25695640
  PAW double counting   =     14880.77270561   -13608.98337338
  entropy T*S    EENTRO =         0.01669059
  eigenvalues    EBANDS =       809.69328680
  atomic energy  EATOM  =     21129.20924906
  Solvation  Ediel_sol  =         0.00000000
  ---------------------------------------------------
  free energy    TOTEN  =      -509.78149522 eV

  energy without entropy =     -509.79818581  energy(sigma->0) =     -509.78705875


--------------------------------------------------------------------------------------------------------




----------------------------------------- Iteration    1(  22)  ---------------------------------------


    POTLOK:  cpu time    1.4720: real time    1.4719
    SETDIJ:  cpu time    1.9800: real time    1.9849
     EDDAV:  cpu time 1284.1880: real time 1286.4688
       DOS:  cpu time    0.0600: real time    0.0596
    CHARGE:  cpu time   43.8640: real time   43.9398
    MIXING:  cpu time    0.1600: real time    0.1590
    --------------------------------------------
      LOOP:  cpu time 1331.7240: real time 1334.0882

 eigenvalue-minimisations  : 52784
 total energy-change (2. order) : 0.7003261E-02  (-0.2924148E-02)
 number of electron     432.0000002 magnetization     104.0832585
 augmentation part       90.0687985 magnetization      74.8986495

 Broyden mixing:
  rms(total) = 0.59420E-01    rms(broyden)= 0.59401E-01
  rms(prec ) = 0.85058E-01
  weight for this iteration     100.00

 eigenvalues of (default mixing * dielectric matrix)
  average eigenvalue GAMMA=   0.7962
  2.4625  1.9751  1.9751  1.3372  1.2486  1.2486  0.7364  0.5935  0.5935  0.3451
  0.0827  0.0980  0.1255  0.1582  0.1711  0.1978  0.1873

 Free energy of the ion-electron system (eV)
  ---------------------------------------------------
  alpha Z        PSCENC =      1700.89082154
  Ewald energy   TEWEN  =    -21122.86767902
  -Hartree energ DENC   =     -3512.33744206
  -exchange      EXHF   =         0.00000000
  -V(xc)+E(xc)   XCENC  =      -785.80902357
  PAW double counting   =     14887.30795569   -13616.04622558
  entropy T*S    EENTRO =         0.01402471
  eigenvalues    EBANDS =       809.86382728
  atomic energy  EATOM  =     21129.20924906
  Solvation  Ediel_sol  =         0.00000000
  ---------------------------------------------------
  free energy    TOTEN  =      -509.77449196 eV

  energy without entropy =     -509.78851666  energy(sigma->0) =     -509.77916686


--------------------------------------------------------------------------------------------------------




----------------------------------------- Iteration    1(  23)  ---------------------------------------


    POTLOK:  cpu time    1.4920: real time    1.4959
    SETDIJ:  cpu time    2.0200: real time    2.0247
     EDDAV:  cpu time 1227.9640: real time 1230.1248
       DOS:  cpu time    0.0600: real time    0.0624
    CHARGE:  cpu time   44.1600: real time   44.2303
    MIXING:  cpu time    0.1520: real time    0.1524
    --------------------------------------------
      LOOP:  cpu time 1275.8520: real time 1278.0957

 eigenvalue-minimisations  : 50104
 total energy-change (2. order) :-0.4831140E-03  (-0.9235243E-03)
 number of electron     432.0000002 magnetization     104.0316394
 augmentation part       90.0028898 magnetization      74.8123990

 Broyden mixing:
  rms(total) = 0.49964E-01    rms(broyden)= 0.49958E-01
  rms(prec ) = 0.70234E-01
[...]
    FORCOR:  cpu time    1.6360: real time    1.6367
    FORHAR:  cpu time    0.3360: real time    0.3374
    MIXING:  cpu time    0.0760: real time    0.0783
    OFIELD:  cpu time    0.0000: real time    0.0001

  FORCE on cell =-STRESS in cart. coord.  units (eV):
  Direction    XX          YY          ZZ          XY          YZ          ZX
  --------------------------------------------------------------------------------------
  Alpha Z  1700.89082  1700.89082  1700.89082
  Ewald   -7519.77764 -7519.59187 -6083.62511     0.00000    -0.43479    -0.00000
  Hartree   863.50484   863.63359  1785.16824    -0.00000    -0.10358    -0.00000
  E(xc)   -1890.09680 -1890.09661 -1899.93645     0.00004     0.00711    -0.00000
  Local    1209.86701  1209.53099 -1206.41856    -0.00054     0.51292     0.00000
  n-local   475.94389   475.94105   451.59745    -0.12713    -0.02662    -0.00025
  augment  1017.93280  1017.93557  1058.65909     0.00060    -0.00102     0.00000
  Kinetic  4141.81786  4141.80856  4193.64460     1.39354    -0.00268     0.00004
  Fock        0.00000     0.00000     0.00000     0.00000     0.00000     0.00000
  -------------------------------------------------------------------------------------
  Total       0.08278     0.05210    -0.01991     0.00000    -0.04867     0.00000
  in kB       0.11489     0.07231    -0.02763     0.00000    -0.06755     0.00000
  external pressure =        0.05 kB  Pullay stress =        0.00 kB


 VOLUME and BASIS-vectors are now :
 -----------------------------------------------------------------------------
  energy-cutoff  :      320.00
  volume of cell :     1154.33
      direct lattice vectors                 reciprocal lattice vectors
    11.000217144  0.000000000  0.000000000     0.090907296  0.052485352 -0.000000000
    -5.500108572  9.526467494  0.000000000     0.000000000  0.104970704  0.000000000
     0.000000000  0.000000000 11.015273102     0.000000000 -0.000000000  0.090783042

  length of vectors
    11.000217144 11.000217144 11.015273102     0.104970704  0.104970704  0.090783042


 FORCES acting on ions
    electron-ion (+dipol)            ewald-force                    non-local-force                 convergence-correction
 -----------------------------------------------------------------------------------------------
   0.227E-01 -.125E+01 0.705E-02   -.158E-01 0.127E+01 -.799E-14   -.884E-02 -.275E-01 -.675E-02   0.167E-03 -.358E-03 -.322E-04
   0.661E-01 0.126E+01 -.772E-02   -.589E-01 -.128E+01 0.568E-12   -.914E-02 0.288E-01 0.730E-02   0.177E-03 0.232E-03 0.727E-04
   -.410E+00 0.104E-01 -.415E-03   0.409E+00 -.102E-01 0.117E-11   0.478E-02 -.168E-03 -.353E-03   -.345E-03 -.536E-04 -.597E-04
   -.208E+01 -.217E-05 0.131E-05   0.213E+01 -.981E-11 -.613E-12   -.551E-01 0.000E+00 0.000E+00   -.348E-03 -.218E-07 0.480E-08
   0.839E+01 -.181E-05 -.706E-07   -.855E+01 -.480E-13 -.124E-13   -.263E+00 0.000E+00 0.000E+00   0.728E-03 0.249E-07 -.601E-08
   -.218E+01 0.144E-05 -.978E-06   0.223E+01 0.983E-11 0.575E-12   -.603E-01 0.000E+00 0.000E+00   -.331E-03 0.135E-07 0.204E-08
   -.410E+00 -.104E-01 0.415E-03   0.409E+00 0.102E-01 -.119E-11   0.478E-02 0.168E-03 0.353E-03   -.345E-03 0.536E-04 0.597E-04
   0.227E-01 0.125E+01 -.705E-02   -.158E-01 -.127E+01 -.641E-12   -.884E-02 0.275E-01 0.675E-02   0.167E-03 0.358E-03 0.322E-04
   0.661E-01 -.126E+01 0.772E-02   -.589E-01 0.128E+01 0.124E-13   -.914E-02 -.288E-01 -.730E-02   0.177E-03 -.232E-03 -.727E-04
   0.585E-01 -.134E+00 -.228E-02   -.562E-01 0.133E+00 -.160E-13   -.238E-02 0.180E-02 0.421E-02   -.714E-05 0.834E-04 0.450E-04
   0.643E-01 0.131E+00 0.237E-02   -.616E-01 -.131E+00 0.632E-12   -.201E-02 -.198E-02 -.430E-02   -.497E-04 -.115E-04 -.840E-04
   -.129E+00 0.261E-02 -.170E-03   0.120E+00 -.251E-02 0.112E-11   0.403E-02 -.121E-03 -.926E-04   0.571E-04 -.231E-05 0.578E-04
   -.173E+00 0.270E-08 -.592E-08   0.173E+00 -.980E-11 -.573E-12   0.894E-03 0.000E+00 0.000E+00   0.104E-03 -.139E-07 -.276E-08
   0.352E+00 -.758E-07 -.513E-10   -.348E+00 0.142E-13 -.115E-13   -.537E-02 0.000E+00 0.000E+00   -.106E-03 0.189E-07 0.690E-09
   -.165E+00 -.350E-08 0.285E-08   0.166E+00 0.984E-11 0.525E-12   0.126E-02 0.000E+00 0.000E+00   0.123E-04 -.107E-07 0.209E-08
   -.129E+00 -.261E-02 0.170E-03   0.120E+00 0.251E-02 -.113E-11   0.403E-02 0.121E-03 0.926E-04   0.571E-04 0.229E-05 -.578E-04
   0.585E-01 0.134E+00 0.228E-02   -.562E-01 -.133E+00 -.668E-12   -.238E-02 -.180E-02 -.421E-02   -.710E-05 -.834E-04 -.450E-04
   0.643E-01 -.131E+00 -.237E-02   -.616E-01 0.131E+00 -.213E-13   -.201E-02 0.198E-02 0.430E-02   -.497E-04 0.115E-04 0.840E-04
   0.730E-01 -.447E+00 -.297E+00   -.874E-01 0.439E+00 0.289E+00   0.139E-01 0.119E-01 0.105E-01   0.188E-04 -.203E-03 -.102E-02
   0.883E-01 0.447E+00 0.297E+00   -.105E+00 -.436E+00 -.288E+00   0.147E-01 -.132E-01 -.106E-01   0.116E-03 0.158E-03 -.407E-03
   -.246E+00 0.608E-02 0.338E-02   0.243E+00 -.565E-02 -.268E-02   0.414E-02 -.459E-03 -.589E-03   -.135E-03 -.431E-04 -.768E-03
   -.657E+00 0.825E-02 -.559E+00   0.661E+00 -.980E-11 0.562E+00   0.393E-03 -.751E-02 -.369E-03   -.185E-03 0.727E-05 -.148E-02
   0.207E+01 -.766E-03 -.776E-01   -.209E+01 0.160E-13 0.789E-01   0.169E-01 0.434E-03 0.118E-02   0.368E-03 0.844E-04 -.107E-02
   -.662E+00 -.674E-02 0.592E+00   0.661E+00 0.983E-11 -.592E+00   0.257E-02 0.685E-02 -.106E-02   -.181E-03 0.640E-04 -.214E-03
   -.243E+00 -.580E-02 0.386E-02   0.243E+00 0.565E-02 -.268E-02   0.827E-03 0.261E-03 -.577E-04   -.245E-03 -.414E-04 -.767E-03
   0.833E-01 0.413E+00 -.278E+00   -.874E-01 -.439E+00 0.289E+00   0.332E-02 0.211E-01 -.102E-01   0.163E-03 0.128E-03 -.100E-02
   0.100E+00 -.413E+00 0.279E+00   -.105E+00 0.436E+00 -.288E+00   0.319E-02 -.207E-01 0.103E-01   0.819E-04 -.154E-03 -.423E-03
   0.833E-01 -.413E+00 0.278E+00   -.874E-01 0.439E+00 -.289E+00   0.332E-02 -.211E-01 0.102E-01   0.163E-03 -.128E-03 0.100E-02
   0.100E+00 0.413E+00 -.279E+00   -.105E+00 -.436E+00 0.288E+00   0.319E-02 0.207E-01 -.103E-01   0.819E-04 0.154E-03 0.423E-03
   -.243E+00 0.580E-02 -.386E-02   0.243E+00 -.565E-02 0.268E-02   0.827E-03 -.261E-03 0.577E-04   -.245E-03 0.414E-04 0.767E-03
   -.657E+00 -.825E-02 0.559E+00   0.661E+00 -.981E-11 -.562E+00   0.393E-03 0.751E-02 0.369E-03   -.185E-03 -.729E-05 0.148E-02
   0.207E+01 0.766E-03 0.776E-01   -.209E+01 0.213E-13 -.789E-01   0.169E-01 -.434E-03 -.118E-02   0.368E-03 -.844E-04 0.107E-02
   -.662E+00 0.674E-02 -.592E+00   0.661E+00 0.984E-11 0.592E+00   0.257E-02 -.685E-02 0.106E-02   -.181E-03 -.640E-04 0.214E-03
   -.246E+00 -.608E-02 -.338E-02   0.243E+00 0.565E-02 0.268E-02   0.414E-02 0.459E-03 0.589E-03   -.135E-03 0.432E-04 0.768E-03
   0.730E-01 0.447E+00 0.297E+00   -.874E-01 -.439E+00 -.289E+00   0.139E-01 -.119E-01 -.105E-01   0.188E-04 0.203E-03 0.102E-02
   0.883E-01 -.447E+00 -.297E+00   -.105E+00 0.436E+00 0.288E+00   0.147E-01 0.132E-01 0.106E-01   0.116E-03 -.158E-03 0.407E-03
   0.580E-01 -.277E-02 -.556E-03   -.558E-01 0.285E-02 0.812E-03   -.840E-03 -.142E-03 -.338E-03   -.161E-03 -.168E-03 -.348E-03
   -.303E-01 0.120E+00 0.183E-01   0.270E-01 -.120E+00 -.165E-01   0.381E-02 0.287E-02 -.342E-02   0.278E-03 0.119E-04 -.289E-03
   -.304E-01 -.117E+00 -.169E-01   0.276E-01 0.118E+00 0.157E-01   0.256E-02 -.245E-02 0.334E-02   -.117E-03 0.189E-03 -.292E-03
   0.932E-01 -.974E-01 -.277E+00   -.933E-01 0.980E-01 0.279E+00   -.227E-02 -.110E-02 -.465E-02   0.232E-03 0.983E-04 -.681E-03
   0.108E+00 0.964E-01 0.279E+00   -.107E+00 -.972E-01 -.278E+00   -.187E-02 0.860E-03 0.321E-02   -.229E-03 0.282E-03 -.113E-03
   -.235E+00 0.166E-02 0.324E-02   0.233E+00 -.122E-02 -.272E-02   -.138E-02 -.101E-02 -.534E-03   -.213E-05 -.172E-03 -.275E-03
   -.131E+00 0.106E+00 -.116E+00   0.129E+00 -.104E+00 0.111E+00   0.632E-02 -.411E-02 0.114E-01   -.952E-04 0.568E-04 -.591E-03
   0.268E+00 0.381E-02 -.369E-02   -.269E+00 -.365E-02 0.499E-02   -.337E-03 0.405E-03 -.725E-03   -.736E-04 -.307E-03 -.373E-03
   -.127E+00 -.109E+00 0.121E+00   0.124E+00 0.107E+00 -.115E+00   0.630E-02 0.418E-02 -.124E-01   0.170E-03 0.155E-04 -.238E-04
   0.190E+00 -.925E-02 0.142E-02   -.192E+00 0.959E-02 -.192E-02   0.226E-02 -.545E-03 -.459E-03   0.190E-03 -.151E-03 0.482E-03
   -.838E-01 0.313E+00 -.264E-01   0.864E-01 -.316E+00 0.252E-01   -.305E-02 0.191E-02 0.171E-03   -.141E-04 0.315E-03 0.449E-03
   -.842E-01 -.305E+00 0.238E-01   0.858E-01 0.308E+00 -.237E-01   -.264E-02 -.149E-02 -.266E-03   -.176E-03 -.201E-03 0.418E-03
   -.138E+01 -.184E+01 0.236E+01   0.135E+01 0.183E+01 -.236E+01   0.116E+00 0.569E-01 -.753E-01   0.484E-03 -.125E-03 0.792E-03
   -.134E+01 0.196E+01 -.251E+01   0.131E+01 -.194E+01 0.250E+01   0.146E+00 -.789E-01 0.104E+00   0.305E-03 0.109E-03 0.394E-03
   -.620E+00 0.347E-02 -.567E-02   0.626E+00 -.418E-02 0.489E-02   -.590E-02 0.319E-03 -.211E-03   -.789E-03 -.155E-03 0.578E-03
   -.540E+00 0.412E+00 0.239E+00   0.536E+00 -.411E+00 -.237E+00   0.455E-02 -.112E-02 -.375E-02   -.314E-03 0.485E-03 0.742E-03
   0.193E+01 0.676E-01 0.433E-01   -.193E+01 -.681E-01 -.437E-01   0.142E-01 -.300E-02 -.252E-02   0.351E-03 -.538E-04 0.492E-03
   -.545E+00 -.434E+00 -.255E+00   0.540E+00 0.432E+00 0.250E+00   0.737E-02 0.321E-02 0.398E-02   -.367E-04 -.221E-03 0.314E-03
   -.540E+00 -.412E+00 -.239E+00   0.536E+00 0.411E+00 0.237E+00   0.455E-02 0.112E-02 0.375E-02   -.314E-03 -.485E-03 -.742E-03
   0.193E+01 -.676E-01 -.433E-01   -.193E+01 0.681E-01 0.437E-01   0.142E-01 0.300E-02 0.252E-02   0.351E-03 0.538E-04 -.492E-03
   -.545E+00 0.434E+00 0.255E+00   0.540E+00 -.432E+00 -.250E+00   0.737E-02 -.321E-02 -.398E-02   -.367E-04 0.221E-03 -.314E-03
   -.620E+00 -.347E-02 0.567E-02   0.626E+00 0.418E-02 -.489E-02   -.590E-02 -.319E-03 0.211E-03   -.789E-03 0.155E-03 -.578E-03
   -.138E+01 0.184E+01 -.236E+01   0.135E+01 -.183E+01 0.236E+01   0.116E+00 -.569E-01 0.753E-01   0.484E-03 0.125E-03 -.792E-03
   -.134E+01 -.196E+01 0.251E+01   0.131E+01 0.194E+01 -.250E+01   0.146E+00 0.789E-01 -.104E+00   0.305E-03 -.109E-03 -.394E-03
   -.838E-01 -.313E+00 0.264E-01   0.864E-01 0.316E+00 -.252E-01   -.305E-02 -.191E-02 -.171E-03   -.141E-04 -.315E-03 -.449E-03
   -.842E-01 0.305E+00 -.238E-01   0.858E-01 -.308E+00 0.237E-01   -.264E-02 0.149E-02 0.266E-03   -.176E-03 0.201E-03 -.418E-03
   0.190E+00 0.925E-02 -.142E-02   -.192E+00 -.959E-02 0.192E-02   0.226E-02 0.545E-03 0.459E-03   0.190E-03 0.151E-03 -.482E-03
   -.131E+00 -.106E+00 0.116E+00   0.129E+00 0.104E+00 -.111E+00   0.632E-02 0.411E-02 -.114E-01   -.952E-04 -.568E-04 0.591E-03
   0.268E+00 -.381E-02 0.369E-02   -.269E+00 0.365E-02 -.499E-02   -.337E-03 -.405E-03 0.725E-03   -.736E-04 0.307E-03 0.373E-03
   -.127E+00 0.109E+00 -.121E+00   0.124E+00 -.107E+00 0.115E+00   0.630E-02 -.418E-02 0.124E-01   0.170E-03 -.155E-04 0.238E-04
   -.235E+00 -.166E-02 -.324E-02   0.233E+00 0.122E-02 0.272E-02   -.138E-02 0.101E-02 0.534E-03   -.213E-05 0.172E-03 0.275E-03
   0.932E-01 0.974E-01 0.277E+00   -.933E-01 -.980E-01 -.279E+00   -.227E-02 0.110E-02 0.465E-02   0.232E-03 -.983E-04 0.681E-03
   0.108E+00 -.964E-01 -.279E+00   -.107E+00 0.972E-01 0.278E+00   -.187E-02 -.860E-03 -.321E-02   -.229E-03 -.282E-03 0.113E-03
   -.303E-01 -.120E+00 -.183E-01   0.270E-01 0.120E+00 0.165E-01   0.381E-02 -.287E-02 0.342E-02   0.278E-03 -.119E-04 0.289E-03
   -.304E-01 0.117E+00 0.169E-01   0.276E-01 -.118E+00 -.157E-01   0.256E-02 0.245E-02 -.334E-02   -.117E-03 -.189E-03 0.292E-03
   0.580E-01 0.277E-02 0.556E-03   -.558E-01 -.285E-02 -.812E-03   -.840E-03 0.142E-03 0.338E-03   -.161E-03 0.168E-03 0.348E-03
 -----------------------------------------------------------------------------------------------
   -.294E+00 0.647E-07 -.849E-07   -.196E-13 -.901E-13 -.281E-12   0.293E+00 -.824E-17 -.683E-17   0.623E-04 -.891E-08 0.107E-08


 POSITION                                       TOTAL-FORCE (eV/Angst)
 -----------------------------------------------------------------------------------
      3.66674      6.35098      0.00000        -0.001744     -0.004264      0.000266
     -3.66674      6.35098      0.00000        -0.001773      0.003888     -0.000343
     -0.00000      6.35098      0.00000         0.002988     -0.000072     -0.000828
      7.33348      0.00000      0.00000        -0.007854      0.000000     -0.000000
      0.06600      0.00000      0.00000        -0.422797      0.000000     -0.000000
      3.66674      0.00000      0.00000        -0.009922      0.000000     -0.000000
      5.50011      3.17549      0.00000         0.002988      0.000072      0.000828
     -1.83337      3.17549      0.00000        -0.001744      0.004264     -0.000266
      1.83337      3.17549      0.00000        -0.001773     -0.003888      0.000343
      3.66674      6.35098      5.50764        -0.000023      0.000399      0.001976
     -3.66674      6.35098      5.50764         0.000613     -0.001148     -0.002022
     -0.00000      6.35098      5.50764        -0.004881     -0.000030     -0.000205
      7.33348      0.00000      5.50764         0.001220      0.000000     -0.000000
      0.00000      0.00000      5.50764        -0.001293      0.000000     -0.000000
      3.66674      0.00000      5.50764         0.002054      0.000000     -0.000000
      5.50011      3.17549      5.50764        -0.004881      0.000030      0.000205
     -1.83337      3.17549      5.50764        -0.000023     -0.000399     -0.001976
      1.83337      3.17549      5.50764         0.000613      0.001148      0.002022
      3.66674      6.35098      8.26145        -0.000419      0.003140      0.001407
     -3.66674      6.35098      8.26145        -0.001757     -0.001371     -0.001615
     -0.00000      6.35098      8.26145         0.000276     -0.000065     -0.000661
      7.33348      0.00000      8.26145         0.004454      0.000755      0.000907
      0.00000      0.00000      8.26145        -0.006791     -0.000248      0.001444
      3.66674      0.00000      8.26145         0.002264      0.000177     -0.001139
      5.50011      3.17549      8.26145         0.000267      0.000062      0.000358
     -1.83337      3.17549      8.26145        -0.000585     -0.004126     -0.000400
      1.83337      3.17549      8.26145        -0.001554      0.001591      0.000640
      3.66674      6.35098      2.75382        -0.000585      0.004126      0.000400
     -3.66674      6.35098      2.75382        -0.001554     -0.001591     -0.000640
     -0.00000      6.35098      2.75382         0.000267     -0.000062     -0.000358
      7.33348      0.00000      2.75382         0.004454     -0.000755     -0.000907
      0.00000      0.00000      2.75382        -0.006791      0.000248     -0.001444
      3.66674      0.00000      2.75382         0.002264     -0.000177      0.001139
      5.50011      3.17549      2.75382         0.000276      0.000065      0.000661
     -1.83337      3.17549      2.75382        -0.000419     -0.003140     -0.001407
      1.83337      3.17549      2.75382        -0.001757      0.001371      0.001615
      5.50011      5.29248      6.88455         0.001223     -0.000232     -0.000430
     -1.83337      5.29248      6.88455         0.000831      0.002311     -0.001871
      1.83337      5.29248      6.88455        -0.000341     -0.001694      0.001806
      3.66674      8.46797      6.88455        -0.002122     -0.000415     -0.004242
     -3.66674      8.46797      6.88455        -0.001631      0.000307      0.004189
     -0.00000      8.46797      6.88455        -0.003207     -0.000747     -0.000289
      7.33348      2.11699      6.88455         0.003412     -0.001335      0.005795
     -0.00000      2.11699      6.88455        -0.001245      0.000261      0.000202
      3.66674      2.11699      6.88455         0.003964      0.001517     -0.006806
      5.50011      5.29248      1.37691         0.000607     -0.000360     -0.000483
     -1.83337      5.29248      1.37691        -0.000524     -0.000086     -0.000545
      1.83337      5.29248      1.37691        -0.001218      0.000796      0.000260
      3.66674      8.46797      1.37691         0.094363      0.044629     -0.073727
     -3.66674      8.46797      1.37691         0.115643     -0.059057      0.094496
     -0.00000      8.46797      1.37691        -0.000152     -0.000551     -0.000410
      7.33348      2.11699      1.37691         0.000399      0.000073     -0.000616
     -0.00000      2.11699      1.37691         0.015766     -0.003596     -0.002378
      3.66674      2.11699      1.37691         0.002193      0.000882     -0.000014
      1.83337      7.40947      9.63836         0.000399     -0.000073      0.000616
      5.50011      7.40947      9.63836         0.015766      0.003596      0.002378
     -1.83337      7.40947      9.63836         0.002193     -0.000882      0.000014
      5.50011      1.05850      9.63836        -0.000152      0.000551      0.000410
      9.16685      1.05850      9.63836         0.094363     -0.044629      0.073727
      1.83337      1.05850      9.63836         0.115643      0.059057     -0.094496
      3.66674      4.23399      9.63836        -0.000524      0.000086      0.000545
      7.33348      4.23399      9.63836        -0.001218     -0.000796     -0.000260
     -0.00000      4.23399      9.63836         0.000607      0.000360      0.000483
      1.83337      7.40947      4.13073         0.003412      0.001335     -0.005795
      5.50011      7.40947      4.13073        -0.001245     -0.000261     -0.000202
     -1.83337      7.40947      4.13073         0.003964     -0.001517      0.006806
      5.50011      1.05850      4.13073        -0.003207      0.000747      0.000289
      9.16685      1.05850      4.13073        -0.002122      0.000415      0.004242
      1.83337      1.05850      4.13073        -0.001631     -0.000307     -0.004189
      3.66674      4.23399      4.13073         0.000831     -0.002311      0.001871
      7.33348      4.23399      4.13073        -0.000341      0.001694     -0.001806
     -0.00000      4.23399      4.13073         0.001223      0.000232      0.000430
 -----------------------------------------------------------------------------------
    total drift:                               -0.000944      0.000000     -0.000000


--------------------------------------------------------------------------------------------------------



  FREE ENERGIE OF THE ION-ELECTRON SYSTEM (eV)
  ---------------------------------------------------
  free  energy   TOTEN  =      -509.77380493 eV

  energy  without entropy=     -509.78816816  energy(sigma->0) =     -509.77859268



--------------------------------------------------------------------------------------------------------


    POTLOK:  cpu time    3.9160: real time    3.9229


--------------------------------------------------------------------------------------------------------


     LOOP+:  cpu time43083.1280: real time43160.5014
    4ORBIT:  cpu time    0.0000: real time    0.0000

 total amount of memory used by VASP on root node   334145. kBytes
========================================================================

   base      :      30000. kBytes
   nonlr-proj:      20526. kBytes
   fftplans  :      28296. kBytes
   grid      :      21369. kBytes
   one-center:        559. kBytes
   wavefun   :     233395. kBytes

  
  
 General timing and accounting informations for this job:
 ========================================================
  
                  Total CPU time used (sec):    43225.406
                            User time (sec):    42811.916
                          System time (sec):      413.492
                         Elapsed time (sec):    43303.610
  
                   Maximum memory used (kb):      384284.
                   Average memory used (kb):           0.
  
                          Minor page faults:        94896
                          Major page faults:            9
                 Voluntary context switches:          567
