 vasp.5.4.1 24Jun15 (build Oct  9 2015 14:58:31) complex                         
 executed on           IFC91_ompi date 2017.05.25  07:06:24
 running on   16 total cores
 distrk:  each k-point on   16 cores,    1 groups
 distr:  one band on NCORES_PER_BAND=   4 cores,    4 groups


--------------------------------------------------------------------------------------------------------


 INCAR:
 POTCAR:   PAW_PBE Mn 06Sep2000                   
 POTCAR:   PAW_PBE As 06Sep2000                   
 POTCAR:   PAW_PBE Mn 06Sep2000                   
   VRHFIN =Mn: d6 s1                                                            
   LEXCH  = PE                                                                  
   EATOM  =   416.8732 eV,   30.6393 Ry                                         
                                                                                
   TITEL  = PAW_PBE Mn 06Sep2000                                                
   LULTRA =        F    use ultrasoft PP ?                                      
   IUNSCR =        1    unscreen: 0-lin 1-nonlin 2-no                           
   RPACOR =    2.000    partial core radius                                     
   POMASS =   54.938; ZVAL   =    7.000    mass and valenz                      
   RCORE  =    2.300    outmost cutoff radius                                   
   RWIGS  =    2.500; RWIGS  =    1.323    wigner-seitz radius (au A)           
   ENMAX  =  269.865; ENMIN  =  202.399 eV                                      
   RCLOC  =    1.725    cutoff for local pot                                    
   LCOR   =        T    correct aug charges                                     
   LPAW   =        T    paw PP                                                  
   EAUG   =  500.711                                                            
   DEXC   =    -.071                                                            
   RMAX   =    2.807    core radius for proj-oper                               
   RAUG   =    1.300    factor for augmentation sphere                          
   RDEP   =    2.338    radius for radial grids                                 
   QCUT   =   -4.454; QGAM   =    8.907    optimization parameters              
                                                                                
   Description                                                                  
     l     E      TYP  RCUT    TYP  RCUT                                        
     2   .000     23  2.300                                                     
     2   .000     23  2.300                                                     
     0   .000     23  2.300                                                     
     0   .000     23  2.300                                                     
     1  -.200     23  2.300                                                     
     1  1.500     23  2.300                                                     
     3   .000      7   .000                                                     
  local pseudopotential read in
  partial core-charges read in
  atomic valenz-charges read in
  non local Contribution for L=           2  read in
    real space projection operators read in
  non local Contribution for L=           2  read in
    real space projection operators read in
  non local Contribution for L=           0  read in
    real space projection operators read in
  non local Contribution for L=           0  read in
    real space projection operators read in
  non local Contribution for L=           1  read in
    real space projection operators read in
  non local Contribution for L=           1  read in
    real space projection operators read in
    PAW grid and wavefunctions read in

   number of l-projection  operators is LMAX  =           6
   number of lm-projection operators is LMMAX =          18

 POTCAR:   PAW_PBE As 06Sep2000                   
   VRHFIN =As: s2p3                                                             
   LEXCH  = PE                                                                  
   EATOM  =   170.0753 eV,   12.5002 Ry                                         
                                                                                
   TITEL  = PAW_PBE As 06Sep2000                                                
   LULTRA =        F    use ultrasoft PP ?                                      
   IUNSCR =        1    unscreen: 0-lin 1-nonlin 2-no                           
   RPACOR =    1.900    partial core radius                                     
   POMASS =   74.922; ZVAL   =    5.000    mass and valenz                      
   RCORE  =    2.100    outmost cutoff radius                                   
   RWIGS  =    2.300; RWIGS  =    1.217    wigner-seitz radius (au A)           
   ENMAX  =  208.680; ENMIN  =  156.510 eV                                      
   ICORE  =        3    local potential                                         
   LCOR   =        T    correct aug charges                                     
   LPAW   =        T    paw PP                                                  
   EAUG   =  462.758                                                            
   DEXC   =    -.108                                                            
   RMAX   =    3.192    core radius for proj-oper                               
   RAUG   =    1.300    factor for augmentation sphere                          
   RDEP   =    2.140    radius for radial grids                                 
   QCUT   =   -3.916; QGAM   =    7.833    optimization parameters              
                                                                                
   Description                                                                  
     l     E      TYP  RCUT    TYP  RCUT                                        
     0   .000     23  2.100                                                     
     0   .000     23  2.100                                                     
     1   .000     23  2.100                                                     
     1   .000     23  2.100                                                     
     2   .000     23  2.100                                                     
     3  -.100      7  2.100                                                     
  local pseudopotential read in
  partial core-charges read in
  atomic valenz-charges read in
  non local Contribution for L=           0  read in
    real space projection operators read in
  non local Contribution for L=           0  read in
    real space projection operators read in
  non local Contribution for L=           1  read in
    real space projection operators read in
  non local Contribution for L=           1  read in
    real space projection operators read in
  non local Contribution for L=           2  read in
    real space projection operators read in
    PAW grid and wavefunctions read in

   number of l-projection  operators is LMAX  =           5
   number of lm-projection operators is LMMAX =          13

 PAW_PBE Mn 06Sep2000                   :
 energy of atom  1       EATOM= -416.8732
 kinetic energy error for atom=    0.0239 (will be added to EATOM!!)
 PAW_PBE As 06Sep2000                   :
 energy of atom  2       EATOM= -170.0753
 kinetic energy error for atom=    0.0021 (will be added to EATOM!!)


 POSCAR: For VASP. System=    MnAs_hex           
  positions in direct lattice
  No initial velocities read in
 exchange correlation table for  LEXCH =        8
   RHO(1)=    0.500       N(1)  =     2000
   RHO(2)=  100.500       N(2)  =     4000



--------------------------------------------------------------------------------------------------------


 ion  position               nearest neighbor table
   1  0.667  0.667  0.000-  56 2.53  55 2.53  46 2.53  49 2.53  48 2.53  61 2.53  19 2.75  28 2.75

   2  0.000  0.667  0.000-  56 2.53  46 2.53  57 2.53  47 2.53  50 2.53  62 2.53  20 2.75  29 2.75

   3  0.333  0.667  0.000-  57 2.53  47 2.53  51 2.53  55 2.53  48 2.53  63 2.53  21 2.75  30 2.75

   4  0.667  0.000  0.000-  49 2.53  59 2.53  58 2.53  52 2.53  55 2.53  51 2.53  22 2.75  31 2.75

   5  0.021  0.000  0.000-  50 2.36  60 2.36  56 2.54  53 2.54  59 2.70  49 2.70  23 2.76  32 2.76

   6  0.333  0.000  0.000-  60 2.53  50 2.53  51 2.53  57 2.53  54 2.53  58 2.53  24 2.75  33 2.75

   7  0.667  0.333  0.000-  52 2.53  62 2.53  58 2.53  54 2.53  61 2.53  46 2.53  25 2.75  34 2.75

   8  0.000  0.333  0.000-  53 2.53  52 2.53  63 2.53  62 2.53  59 2.53  47 2.53  26 2.75  35 2.75

   9  0.333  0.333  0.000-  53 2.53  54 2.53  63 2.53  60 2.53  61 2.53  48 2.53  27 2.75  36 2.75

  10  0.667  0.667  0.500-  65 2.53  64 2.53  37 2.53  40 2.53  39 2.53  70 2.53  19 2.75  28 2.75

  11  0.000  0.667  0.500-  65 2.53  37 2.53  66 2.53  38 2.53  41 2.53  71 2.53  20 2.75  29 2.75

  12  0.333  0.667  0.500-  66 2.53  38 2.53  42 2.53  64 2.53  39 2.53  72 2.53  21 2.75  30 2.75

  13  0.667  0.000  0.500-  40 2.53  68 2.53  67 2.53  43 2.53  64 2.53  42 2.53  22 2.75  31 2.75

  14  0.000  0.000  0.500-  41 2.53  68 2.53  40 2.53  69 2.53  44 2.53  65 2.53  23 2.75  32 2.75

  15  0.333  0.000  0.500-  69 2.53  41 2.53  42 2.53  66 2.53  45 2.53  67 2.53  24 2.75  33 2.75

  16  0.667  0.333  0.500-  43 2.53  71 2.53  67 2.53  45 2.53  70 2.53  37 2.53  25 2.75  34 2.75

  17  0.000  0.333  0.500-  44 2.53  43 2.53  72 2.53  71 2.53  68 2.53  38 2.53  26 2.75  35 2.75

  18  0.333  0.333  0.500-  44 2.53  45 2.53  72 2.53  69 2.53  70 2.53  39 2.53  27 2.75  36 2.75

  19  0.667  0.667  0.750-  56 2.53  55 2.53  37 2.53  40 2.53  39 2.53  61 2.53   1 2.75  10 2.75

  20  0.000  0.667  0.750-  56 2.53  37 2.53  57 2.53  38 2.53  41 2.53  62 2.53   2 2.75  11 2.75

  21  0.333  0.667  0.750-  57 2.53  38 2.53  42 2.53  55 2.53  39 2.53  63 2.53   3 2.75  12 2.75

  22  0.667  0.000  0.750-  40 2.53  59 2.53  58 2.53  43 2.53  55 2.53  42 2.53   4 2.75  13 2.75

  23  0.000  0.000  0.750-  41 2.53  59 2.53  40 2.53  60 2.53  44 2.53  56 2.53  14 2.75   5 2.76

  24  0.333  0.000  0.750-  60 2.53  41 2.53  42 2.53  57 2.53  45 2.53  58 2.53   6 2.75  15 2.75

  25  0.667  0.333  0.750-  43 2.53  62 2.53  58 2.53  45 2.53  61 2.53  37 2.53   7 2.75  16 2.75

  26  0.000  0.333  0.750-  44 2.53  43 2.53  63 2.53  62 2.53  59 2.53  38 2.53   8 2.75  17 2.75

  27  0.333  0.333  0.750-  44 2.53  45 2.53  63 2.53  60 2.53  61 2.53  39 2.53   9 2.75  18 2.75

  28  0.667  0.667  0.250-  65 2.53  64 2.53  46 2.53  49 2.53  48 2.53  70 2.53   1 2.75  10 2.75

  29  0.000  0.667  0.250-  65 2.53  46 2.53  66 2.53  47 2.53  50 2.53  71 2.53   2 2.75  11 2.75

  30  0.333  0.667  0.250-  66 2.53  47 2.53  51 2.53  64 2.53  48 2.53  72 2.53   3 2.75  12 2.75

  31  0.667  0.000  0.250-  49 2.53  68 2.53  67 2.53  52 2.53  64 2.53  51 2.53   4 2.75  13 2.75

  32  0.000  0.000  0.250-  50 2.53  68 2.53  49 2.53  69 2.53  53 2.53  65 2.53  14 2.75   5 2.76

  33  0.333  0.000  0.250-  69 2.53  50 2.53  51 2.53  66 2.53  54 2.53  67 2.53   6 2.75  15 2.75

  34  0.667  0.333  0.250-  52 2.53  71 2.53  67 2.53  54 2.53  70 2.53  46 2.53   7 2.75  16 2.75

  35  0.000  0.333  0.250-  53 2.53  52 2.53  72 2.53  71 2.53  68 2.53  47 2.53   8 2.75  17 2.75

  36  0.333  0.333  0.250-  53 2.53  54 2.53  72 2.53  69 2.53  70 2.53  48 2.53   9 2.75  18 2.75

  37  0.778  0.556  0.625-  11 2.53  20 2.53  19 2.53  10 2.53  16 2.53  25 2.53
  38  0.111  0.556  0.625-  12 2.53  21 2.53  20 2.53  11 2.53  17 2.53  26 2.53
  39  0.444  0.556  0.625-  10 2.53  19 2.53  12 2.53  21 2.53  18 2.53  27 2.53
  40  0.778  0.889  0.625-  13 2.53  22 2.53  14 2.53  23 2.53  10 2.53  19 2.53
  41  0.111  0.889  0.625-  14 2.53  23 2.53  15 2.53  24 2.53  11 2.53  20 2.53
  42  0.444  0.889  0.625-  15 2.53  24 2.53  21 2.53  12 2.53  22 2.53  13 2.53
  43  0.778  0.222  0.625-  16 2.53  25 2.53  17 2.53  26 2.53  13 2.53  22 2.53
  44  0.111  0.222  0.625-  17 2.53  26 2.53  18 2.53  27 2.53  14 2.53  23 2.53
  45  0.444  0.222  0.625-  18 2.53  27 2.53  24 2.53  15 2.53  25 2.53  16 2.53
  46  0.778  0.556  0.125-   2 2.53  29 2.53  28 2.53   1 2.53   7 2.53  34 2.53
  47  0.111  0.556  0.125-   3 2.53  30 2.53  29 2.53   2 2.53   8 2.53  35 2.53
  48  0.444  0.556  0.125-   1 2.53  28 2.53   3 2.53  30 2.53   9 2.53  36 2.53
  49  0.778  0.889  0.125-   4 2.53  31 2.53  32 2.53   1 2.53  28 2.53   5 2.70
  50  0.111  0.889  0.125-   5 2.36  32 2.53   6 2.53  33 2.53   2 2.53  29 2.53
  51  0.444  0.889  0.125-   6 2.53  33 2.53  30 2.53   3 2.53  31 2.53   4 2.53
  52  0.778  0.222  0.125-   7 2.53  34 2.53   8 2.53  35 2.53   4 2.53  31 2.53
  53  0.111  0.222  0.125-   8 2.53  35 2.53   9 2.53  36 2.53  32 2.53   5 2.54
  54  0.444  0.222  0.125-   9 2.53  36 2.53  33 2.53   6 2.53  34 2.53   7 2.53
  55  0.556  0.778  0.875-   1 2.53  19 2.53   4 2.53  22 2.53  21 2.53   3 2.53
  56  0.889  0.778  0.875-   2 2.53  20 2.53  19 2.53   1 2.53  23 2.53   5 2.54
  57  0.222  0.778  0.875-   3 2.53  21 2.53  20 2.53   2 2.53   6 2.53  24 2.53
  58  0.556  0.111  0.875-   4 2.53  22 2.53   7 2.53  25 2.53  24 2.53   6 2.53
  59  0.889  0.111  0.875-  23 2.53  22 2.53   4 2.53   8 2.53  26 2.53   5 2.70
  60  0.222  0.111  0.875-   5 2.36   6 2.53  24 2.53  23 2.53   9 2.53  27 2.53
  61  0.556  0.444  0.875-   9 2.53  27 2.53  25 2.53   7 2.53   1 2.53  19 2.53
  62  0.889  0.444  0.875-   7 2.53  25 2.53   8 2.53  26 2.53   2 2.53  20 2.53
  63  0.222  0.444  0.875-   8 2.53  26 2.53   9 2.53  27 2.53   3 2.53  21 2.53
  64  0.556  0.778  0.375-  10 2.53  28 2.53  13 2.53  31 2.53  30 2.53  12 2.53
  65  0.889  0.778  0.375-  11 2.53  29 2.53  28 2.53  10 2.53  14 2.53  32 2.53
  66  0.222  0.778  0.375-  12 2.53  30 2.53  29 2.53  11 2.53  15 2.53  33 2.53
  67  0.556  0.111  0.375-  13 2.53  31 2.53  16 2.53  34 2.53  33 2.53  15 2.53
  68  0.889  0.111  0.375-  14 2.53  32 2.53  31 2.53  13 2.53  17 2.53  35 2.53
  69  0.222  0.111  0.375-  15 2.53  33 2.53  32 2.53  14 2.53  18 2.53  36 2.53
  70  0.556  0.444  0.375-  18 2.53  36 2.53  34 2.53  16 2.53  10 2.53  28 2.53
  71  0.889  0.444  0.375-  16 2.53  34 2.53  17 2.53  35 2.53  11 2.53  29 2.53
  72  0.222  0.444  0.375-  17 2.53  35 2.53  18 2.53  36 2.53  12 2.53  30 2.53

  LATTYP: Found a hexagonal cell.
 ALAT       =    11.0002171438
 C/A-ratio  =     1.0013686964
  
  Lattice vectors:
  
 A1 = (  11.0002171438,   0.0000000000,   0.0000000000)
 A2 = (  -5.5001085719,   9.5264674936,   0.0000000000)
 A3 = (   0.0000000000,   0.0000000000,  11.0152731015)


Analysis of symmetry for initial positions (statically):
=====================================================================
 Subroutine PRICEL returns:
 Original cell was already a primitive cell.
 

 Routine SETGRP: Setting up the symmetry group for a 
 hexagonal supercell.


 Subroutine GETGRP returns: Found  2 space group operations
 (whereof  2 operations were pure point group operations)
 out of a pool of 24 trial point group operations.


The static configuration has the point symmetry C_2 .


Analysis of symmetry for dynamics (positions and initial velocities):
=====================================================================
 Subroutine PRICEL returns:
 Original cell was already a primitive cell.
 

 Routine SETGRP: Setting up the symmetry group for a 
 hexagonal supercell.


 Subroutine GETGRP returns: Found  2 space group operations
 (whereof  2 operations were pure point group operations)
 out of a pool of 24 trial point group operations.


The dynamic configuration has the point symmetry C_2 .


Analysis of structural, dynamic, and magnetic symmetry:
=====================================================================
 Subroutine PRICEL returns:
 Original cell was already a primitive cell.
 

 Routine SETGRP: Setting up the symmetry group for a 
 hexagonal supercell.


 Subroutine GETGRP returns: Found  2 space group operations
 (whereof  2 operations were pure point group operations)
 out of a pool of 24 trial point group operations.


The magnetic configuration has the point symmetry C_2 .


 Subroutine INISYM returns: Found  2 space group operations
 (whereof  2 operations are pure point group operations),
 and found     1 'primitive' translations



 KPOINTS: Automatic mesh                          

Automatic generation of k-mesh.
Space group operators:
 irot       det(A)        alpha          n_x          n_y          n_z        tau_x        tau_y        tau_z
    1     1.000000     0.000000     1.000000     0.000000     0.000000     0.000000     0.000000     0.000000
    2     1.000000   180.000000     1.000000     0.000000     0.000000     0.000000     0.000000     0.000000
 
 Subroutine IBZKPT returns following result:
 ===========================================
 
 Found     24 irreducible k-points:
 
 Following reciprocal coordinates:
            Coordinates               Weight
  0.000000  0.000000  0.000000      1.000000
  0.250000  0.000000  0.000000      4.000000
  0.500000  0.000000  0.000000      2.000000
  0.000000  0.250000  0.000000      2.000000
  0.250000  0.250000  0.000000      4.000000
  0.500000  0.250000  0.000000      2.000000
  0.000000  0.500000  0.000000      1.000000
  0.000000  0.000000  0.250000      2.000000
  0.250000  0.000000  0.250000      4.000000
  0.500000  0.000000  0.250000      4.000000
 -0.250000  0.000000  0.250000      4.000000
  0.000000  0.250000  0.250000      2.000000
  0.250000  0.250000  0.250000      4.000000
  0.500000  0.250000  0.250000      4.000000
  0.000000  0.500000  0.250000      2.000000
  0.250000  0.500000  0.250000      4.000000
  0.000000 -0.250000  0.250000      2.000000
  0.000000  0.000000  0.500000      1.000000
  0.250000  0.000000  0.500000      4.000000
  0.500000  0.000000  0.500000      2.000000
  0.000000  0.250000  0.500000      2.000000
  0.250000  0.250000  0.500000      4.000000
  0.500000  0.250000  0.500000      2.000000
  0.000000  0.500000  0.500000      1.000000
 
 Following cartesian coordinates:
            Coordinates               Weight
  0.000000  0.000000  0.000000      1.000000
  0.022727  0.013121  0.000000      4.000000
  0.045454  0.026243  0.000000      2.000000
  0.000000  0.026243  0.000000      2.000000
  0.022727  0.039364  0.000000      4.000000
  0.045454  0.052485  0.000000      2.000000
  0.000000  0.052485  0.000000      1.000000
  0.000000  0.000000  0.022696      2.000000
  0.022727  0.013121  0.022696      4.000000
  0.045454  0.026243  0.022696      4.000000
 -0.022727 -0.013121  0.022696      4.000000
  0.000000  0.026243  0.022696      2.000000
  0.022727  0.039364  0.022696      4.000000
  0.045454  0.052485  0.022696      4.000000
  0.000000  0.052485  0.022696      2.000000
  0.022727  0.065607  0.022696      4.000000
  0.000000 -0.026243  0.022696      2.000000
  0.000000  0.000000  0.045392      1.000000
  0.022727  0.013121  0.045392      4.000000
  0.045454  0.026243  0.045392      2.000000
  0.000000  0.026243  0.045392      2.000000
  0.022727  0.039364  0.045392      4.000000
  0.045454  0.052485  0.045392      2.000000
  0.000000  0.052485  0.045392      1.000000
 


--------------------------------------------------------------------------------------------------------




 Dimension of arrays:
   k-points           NKPTS =     24   k-points in BZ     NKDIM =     24   number of bands    NBANDS=    300
   number of dos      NEDOS =    301   number of ions     NIONS =     72
   non local maximal  LDIM  =      6   non local SUM 2l+1 LMDIM =     18
   total plane-waves  NPLWV = 343000
   max r-space proj   IRMAX =   6047   max aug-charges    IRDMAX=  98554
   dimension x,y,z NGX =    70 NGY =   70 NGZ =   70
   dimension x,y,z NGXF=   140 NGYF=  140 NGZF=  140
   support grid    NGXF=   280 NGYF=  280 NGZF=  280
   ions per type =              36  36
 NGX,Y,Z   is equivalent  to a cutoff of  10.58, 10.58, 10.56 a.u.
 NGXF,Y,Z  is equivalent  to a cutoff of  21.16, 21.16, 21.13 a.u.


 I would recommend the setting:
   dimension x,y,z NGX =    64 NGY =   64 NGZ =   64
 SYSTEM =  MnAs hex                                
 POSCAR =  For VASP. System=    MnAs_hex           

 Startparameter for this run:
   NWRITE =      2    write-flag & timer
   PREC   = accura    normal or accurate (medium, high low for compatibility)
   ISTART =      0    job   : 0-new  1-cont  2-samecut
   ICHARG =      2    charge: 1-file 2-atom 10-const
   ISPIN  =      2    spin polarized calculation?
   LNONCOLLINEAR =      F non collinear calculations
   LSORBIT =      F    spin-orbit coupling
   INIWAV =      1    electr: 0-lowe 1-rand  2-diag
   LASPH  =      F    aspherical Exc in radial PAW
   METAGGA=      F    non-selfconsistent MetaGGA calc.

 Electronic Relaxation 1
   ENCUT  =  320.0 eV  23.52 Ry    4.85 a.u.  16.04 16.04 16.07*2*pi/ulx,y,z
   ENINI  =  320.0     initial cutoff
   ENAUG  =  500.7 eV  augmentation charge cutoff
   NELM   =    200;   NELMIN=  2; NELMDL= -5     # of ELM steps 
   EDIFF  = 0.1E-06   stopping-criterion for ELM
   LREAL  =      T    real-space projection
   NLSPLINE    = F    spline interpolate recip. space projectors
   LCOMPAT=      F    compatible to vasp.4.4
   GGA_COMPAT  = T    GGA compatible to vasp.4.4-vasp.4.6
   LMAXPAW     = -100 max onsite density
   LMAXMIX     =    2 max onsite mixed and CHGCAR
   VOSKOWN=      0    Vosko Wilk Nusair interpolation
   ROPT   =    0.00000   0.00000
 Ionic relaxation
   EDIFFG = 0.1E-05   stopping-criterion for IOM
   NSW    =      0    number of steps for IOM
   NBLOCK =      1;   KBLOCK =      1    inner block; outer block 
   IBRION =     -1    ionic relax: 0-MD 1-quasi-New 2-CG
   NFREE  =      1    steps in history (QN), initial steepest desc. (CG)
   ISIF   =      6    stress and relaxation
   IWAVPR =     10    prediction:  0-non 1-charg 2-wave 3-comb
   ISYM   =      2    0-nonsym 1-usesym 2-fastsym
   LCORR  =      T    Harris-Foulkes like correction to forces

   POTIM  = 0.5000    time-step for ionic-motion
   TEIN   =    0.0    initial temperature
   TEBEG  =    0.0;   TEEND  =   0.0 temperature during run
   SMASS  =  -3.00    Nose mass-parameter (am)
   estimated Nose-frequenzy (Omega)   =  0.10E-29 period in steps =****** mass=  -0.277E-26a.u.
   SCALEE = 1.0000    scale energy and forces
   NPACO  =    256;   APACO  = 16.0  distance and # of slots for P.C.
   PSTRESS=    0.0 pullay stress

  Mass of Ions in am
   POMASS =  54.94 74.92
  Ionic Valenz
   ZVAL   =   7.00  5.00
  Atomic Wigner-Seitz radii
   RWIGS  =  -1.00 -1.00
  virtual crystal weights 
   VCA    =   1.00  1.00
   NELECT =     432.0000    total number of electrons
   NUPDOWN=      -1.0000    fix difference up-down

 DOS related values:
   EMIN   =  10.00;   EMAX   =-10.00  energy-range for DOS
   EFERMI =   0.00
   ISMEAR =     1;   SIGMA  =   0.20  broadening in eV -4-tet -1-fermi 0-gaus

 Electronic relaxation 2 (details)
   IALGO  =     38    algorithm
   LDIAG  =      T    sub-space diagonalisation (order eigenvalues)
   LSUBROT=      F    optimize rotation matrix (better conditioning)
   TURBO    =      0    0=normal 1=particle mesh
   IRESTART =      0    0=no restart 2=restart with 2 vectors
   NREBOOT  =      0    no. of reboots
   NMIN     =      0    reboot dimension
   EREF     =   0.00    reference energy to select bands
   IMIX   =      4    mixing-type and parameters
     AMIX     =   0.40;   BMIX     =  1.00
     AMIX_MAG =   1.60;   BMIX_MAG =  1.00
     AMIN     =   0.10
     WC   =   100.;   INIMIX=   1;  MIXPRE=   1;  MAXMIX= -45

 Intra band minimization:
   WEIMIN = 0.0000     energy-eigenvalue tresh-hold
   EBREAK =  0.83E-10  absolut break condition
   DEPER  =   0.30     relativ break condition  

   TIME   =   0.40     timestep for ELM

  volume/ion in A,a.u.               =      16.03       108.19
  Fermi-wavevector in a.u.,A,eV,Ry     =   1.179759  2.229421 18.937012  1.391831
  Thomas-Fermi vector in A             =   2.316064

 Write flags
   LWAVE  =      F    write WAVECAR
   LCHARG =      F    write CHGCAR
   LVTOT  =      F    write LOCPOT, total local potential
   LVHAR  =      F    write LOCPOT, Hartree potential only
   LELF   =      F    write electronic localiz. function (ELF)
   LORBIT =      0    0 simple, 1 ext, 2 COOP (PROOUT)


 Dipole corrections
   LMONO  =      F    monopole corrections only (constant potential shift)
   LDIPOL =      F    correct potential (dipole corrections)
   IDIPOL =      0    1-x, 2-y, 3-z, 4-all directions 
   EPSILON=  1.0000000 bulk dielectric constant

 Exchange correlation treatment:
   GGA     =    --    GGA type
   LEXCH   =     8    internal setting for exchange type
   VOSKOWN=      0    Vosko Wilk Nusair interpolation
   LHFCALC =     F    Hartree Fock is set to
   LHFONE  =     F    Hartree Fock one center treatment
   AEXX    =    0.0000 exact exchange contribution

 Linear response parameters
   LEPSILON=     F    determine dielectric tensor
   LRPA    =     F    only Hartree local field effects (RPA)
   LNABLA  =     F    use nabla operator in PAW spheres
   LVEL    =     F    velocity operator in full k-point grid
   LINTERFAST=   F  fast interpolation
   KINTER  =     0    interpolate to denser k-point grid
   CSHIFT  =0.1000    complex shift for real part using Kramers Kronig
   OMEGAMAX=  -1.0    maximum frequency
   DEG_THRESHOLD= 0.2000000E-02 threshold for treating states as degnerate
   RTIME   =    0.100 relaxation time in fs

 Orbital magnetization related:
   ORBITALMAG=     F  switch on orbital magnetization
   LCHIMAG   =     F  perturbation theory with respect to B field
   DQ        =  0.001000  dq finite difference perturbation B field



--------------------------------------------------------------------------------------------------------


 Static calculation
 charge density and potential will be updated during run
 spin polarized calculation
 Variant of blocked Davidson
 Davidson routine will perform the subspace rotation
 perform sub-space diagonalisation
    after iterative eigenvector-optimisation
 modified Broyden-mixing scheme, WC =      100.0
 initial mixing is a Kerker type mixing with AMIX =  0.4000 and BMIX =      1.0000
 Hartree-type preconditioning will be used
 using additional bands           84
 real space projection scheme for non local part
 use partial core corrections
 calculate Harris-corrections to forces   (improved forces if not selfconsistent)
 use gradient corrections 
 use of overlap-Matrix (Vanderbilt PP)
 Methfessel and Paxton  Order N= 1 SIGMA  =   0.20


--------------------------------------------------------------------------------------------------------


  energy-cutoff  :      320.00
  volume of cell :     1154.33
      direct lattice vectors                 reciprocal lattice vectors
    11.000217144  0.000000000  0.000000000     0.090907296  0.052485352 -0.000000000
    -5.500108572  9.526467494  0.000000000     0.000000000  0.104970704  0.000000000
     0.000000000  0.000000000 11.015273102     0.000000000 -0.000000000  0.090783042

  length of vectors
    11.000217144 11.000217144 11.015273102     0.104970704  0.104970704  0.090783042



 k-points in units of 2pi/SCALE and weight: Automatic mesh                          
   0.00000000  0.00000000  0.00000000       0.016
   0.02272682  0.01312134  0.00000000       0.062
   0.04545365  0.02624268  0.00000000       0.031
   0.00000000  0.02624268  0.00000000       0.031
   0.02272682  0.03936401  0.00000000       0.062
   0.04545365  0.05248535  0.00000000       0.031
   0.00000000  0.05248535  0.00000000       0.016
   0.00000000  0.00000000  0.02269576       0.031
   0.02272682  0.01312134  0.02269576       0.062
   0.04545365  0.02624268  0.02269576       0.062
  -0.02272682 -0.01312134  0.02269576       0.062
   0.00000000  0.02624268  0.02269576       0.031
   0.02272682  0.03936401  0.02269576       0.062
   0.04545365  0.05248535  0.02269576       0.062
   0.00000000  0.05248535  0.02269576       0.031
   0.02272682  0.06560669  0.02269576       0.062
   0.00000000 -0.02624268  0.02269576       0.031
   0.00000000  0.00000000  0.04539152       0.016
   0.02272682  0.01312134  0.04539152       0.062
   0.04545365  0.02624268  0.04539152       0.031
   0.00000000  0.02624268  0.04539152       0.031
   0.02272682  0.03936401  0.04539152       0.062
   0.04545365  0.05248535  0.04539152       0.031
   0.00000000  0.05248535  0.04539152       0.016

 k-points in reciprocal lattice and weights: Automatic mesh                          
   0.00000000  0.00000000  0.00000000       0.016
   0.25000000  0.00000000  0.00000000       0.062
   0.50000000  0.00000000  0.00000000       0.031
   0.00000000  0.25000000  0.00000000       0.031
   0.25000000  0.25000000  0.00000000       0.062
   0.50000000  0.25000000  0.00000000       0.031
   0.00000000  0.50000000  0.00000000       0.016
   0.00000000  0.00000000  0.25000000       0.031
   0.25000000  0.00000000  0.25000000       0.062
   0.50000000  0.00000000  0.25000000       0.062
  -0.25000000  0.00000000  0.25000000       0.062
   0.00000000  0.25000000  0.25000000       0.031
   0.25000000  0.25000000  0.25000000       0.062
   0.50000000  0.25000000  0.25000000       0.062
   0.00000000  0.50000000  0.25000000       0.031
   0.25000000  0.50000000  0.25000000       0.062
   0.00000000 -0.25000000  0.25000000       0.031
   0.00000000  0.00000000  0.50000000       0.016
   0.25000000  0.00000000  0.50000000       0.062
   0.50000000  0.00000000  0.50000000       0.031
   0.00000000  0.25000000  0.50000000       0.031
   0.25000000  0.25000000  0.50000000       0.062
   0.50000000  0.25000000  0.50000000       0.031
   0.00000000  0.50000000  0.50000000       0.016

 position of ions in fractional coordinates (direct lattice) 
   0.66666667  0.66666667  0.00000000
   0.00000000  0.66666667  0.00000000
   0.33333333  0.66666667  0.00000000
   0.66666667  0.00000000  0.00000000
   0.02100000  0.00000000  0.00000000
   0.33333333  0.00000000  0.00000000
   0.66666667  0.33333333  0.00000000
   0.00000000  0.33333333  0.00000000
   0.33333333  0.33333333  0.00000000
   0.66666667  0.66666667  0.50000000
   0.00000000  0.66666667  0.50000000
   0.33333333  0.66666667  0.50000000
   0.66666667  0.00000000  0.50000000
   0.00000000  0.00000000  0.50000000
   0.33333333  0.00000000  0.50000000
   0.66666667  0.33333333  0.50000000
   0.00000000  0.33333333  0.50000000
   0.33333333  0.33333333  0.50000000
   0.66666667  0.66666667  0.75000000
   0.00000000  0.66666667  0.75000000
   0.33333333  0.66666667  0.75000000
   0.66666667  0.00000000  0.75000000
   0.00000000  0.00000000  0.75000000
   0.33333333  0.00000000  0.75000000
   0.66666667  0.33333333  0.75000000
   0.00000000  0.33333333  0.75000000
   0.33333333  0.33333333  0.75000000
   0.66666667  0.66666667  0.25000000
   0.00000000  0.66666667  0.25000000
   0.33333333  0.66666667  0.25000000
   0.66666667  0.00000000  0.25000000
   0.00000000  0.00000000  0.25000000
   0.33333333  0.00000000  0.25000000
   0.66666667  0.33333333  0.25000000
   0.00000000  0.33333333  0.25000000
   0.33333333  0.33333333  0.25000000
   0.77777778  0.55555556  0.62500000
   0.11111111  0.55555556  0.62500000
   0.44444444  0.55555556  0.62500000
   0.77777778  0.88888889  0.62500000
   0.11111111  0.88888889  0.62500000
   0.44444444  0.88888889  0.62500000
   0.77777778  0.22222222  0.62500000
   0.11111111  0.22222222  0.62500000
   0.44444444  0.22222222  0.62500000
   0.77777778  0.55555556  0.12500000
   0.11111111  0.55555556  0.12500000
   0.44444444  0.55555556  0.12500000
   0.77777778  0.88888889  0.12500000
   0.11111111  0.88888889  0.12500000
   0.44444444  0.88888889  0.12500000
   0.77777778  0.22222222  0.12500000
   0.11111111  0.22222222  0.12500000
   0.44444444  0.22222222  0.12500000
   0.55555556  0.77777778  0.87500000
   0.88888889  0.77777778  0.87500000
   0.22222222  0.77777778  0.87500000
   0.55555556  0.11111111  0.87500000
   0.88888889  0.11111111  0.87500000
   0.22222222  0.11111111  0.87500000
   0.55555556  0.44444444  0.87500000
   0.88888889  0.44444444  0.87500000
   0.22222222  0.44444444  0.87500000
   0.55555556  0.77777778  0.37500000
   0.88888889  0.77777778  0.37500000
   0.22222222  0.77777778  0.37500000
   0.55555556  0.11111111  0.37500000
   0.88888889  0.11111111  0.37500000
   0.22222222  0.11111111  0.37500000
   0.55555556  0.44444444  0.37500000
   0.88888889  0.44444444  0.37500000
   0.22222222  0.44444444  0.37500000

 position of ions in cartesian coordinates  (Angst):
   3.66673905  6.35097833  0.00000000
  -3.66673905  6.35097833  0.00000000
  -0.00000000  6.35097833  0.00000000
   7.33347810  0.00000000  0.00000000
   0.23100456  0.00000000  0.00000000
   3.66673905  0.00000000  0.00000000
   5.50010857  3.17548916  0.00000000
  -1.83336952  3.17548916  0.00000000
   1.83336952  3.17548916  0.00000000
   3.66673905  6.35097833  5.50763655
  -3.66673905  6.35097833  5.50763655
  -0.00000000  6.35097833  5.50763655
   7.33347810  0.00000000  5.50763655
   0.00000000  0.00000000  5.50763655
   3.66673905  0.00000000  5.50763655
   5.50010857  3.17548916  5.50763655
  -1.83336952  3.17548916  5.50763655
   1.83336952  3.17548916  5.50763655
   3.66673905  6.35097833  8.26145483
  -3.66673905  6.35097833  8.26145483
  -0.00000000  6.35097833  8.26145483
   7.33347810  0.00000000  8.26145483
   0.00000000  0.00000000  8.26145483
   3.66673905  0.00000000  8.26145483
   5.50010857  3.17548916  8.26145483
  -1.83336952  3.17548916  8.26145483
   1.83336952  3.17548916  8.26145483
   3.66673905  6.35097833  2.75381828
  -3.66673905  6.35097833  2.75381828
  -0.00000000  6.35097833  2.75381828
   7.33347810  0.00000000  2.75381828
   0.00000000  0.00000000  2.75381828
   3.66673905  0.00000000  2.75381828
   5.50010857  3.17548916  2.75381828
  -1.83336952  3.17548916  2.75381828
   1.83336952  3.17548916  2.75381828
   5.50010857  5.29248194  6.88454569
  -1.83336952  5.29248194  6.88454569
   1.83336952  5.29248194  6.88454569
   3.66673905  8.46797111  6.88454569
  -3.66673905  8.46797111  6.88454569
  -0.00000000  8.46797111  6.88454569
   7.33347810  2.11699278  6.88454569
  -0.00000000  2.11699278  6.88454569
   3.66673905  2.11699278  6.88454569
   5.50010857  5.29248194  1.37690914
  -1.83336952  5.29248194  1.37690914
   1.83336952  5.29248194  1.37690914
   3.66673905  8.46797111  1.37690914
  -3.66673905  8.46797111  1.37690914
  -0.00000000  8.46797111  1.37690914
   7.33347810  2.11699278  1.37690914
  -0.00000000  2.11699278  1.37690914
   3.66673905  2.11699278  1.37690914
   1.83336952  7.40947472  9.63836396
   5.50010857  7.40947472  9.63836396
  -1.83336952  7.40947472  9.63836396
   5.50010857  1.05849639  9.63836396
   9.16684762  1.05849639  9.63836396
   1.83336952  1.05849639  9.63836396
   3.66673905  4.23398555  9.63836396
   7.33347810  4.23398555  9.63836396
  -0.00000000  4.23398555  9.63836396
   1.83336952  7.40947472  4.13072741
   5.50010857  7.40947472  4.13072741
  -1.83336952  7.40947472  4.13072741
   5.50010857  1.05849639  4.13072741
   9.16684762  1.05849639  4.13072741
   1.83336952  1.05849639  4.13072741
   3.66673905  4.23398555  4.13072741
   7.33347810  4.23398555  4.13072741
  -0.00000000  4.23398555  4.13072741



--------------------------------------------------------------------------------------------------------


 k-point  1 :   0.0000 0.0000 0.0000  plane waves:   14931
 k-point  2 :   0.2500 0.0000 0.0000  plane waves:   14982
 k-point  3 :   0.5000 0.0000 0.0000  plane waves:   15008
 k-point  4 :   0.0000 0.2500 0.0000  plane waves:   14982
 k-point  5 :   0.2500 0.2500 0.0000  plane waves:   14994
 k-point  6 :   0.5000 0.2500 0.0000  plane waves:   14994
 k-point  7 :   0.0000 0.5000 0.0000  plane waves:   15008
 k-point  8 :   0.0000 0.0000 0.2500  plane waves:   14990
 k-point  9 :   0.2500 0.0000 0.2500  plane waves:   15013
 k-point 10 :   0.5000 0.0000 0.2500  plane waves:   15002
 k-point 11 :  -0.2500 0.0000 0.2500  plane waves:   15013
 k-point 12 :   0.0000 0.2500 0.2500  plane waves:   15013
 k-point 13 :   0.2500 0.2500 0.2500  plane waves:   15003
 k-point 14 :   0.5000 0.2500 0.2500  plane waves:   15003
 k-point 15 :   0.0000 0.5000 0.2500  plane waves:   15002
 k-point 16 :   0.2500 0.5000 0.2500  plane waves:   15003
 k-point 17 :   0.0000-0.2500 0.2500  plane waves:   15013
 k-point 18 :   0.0000 0.0000 0.5000  plane waves:   14984
 k-point 19 :   0.2500 0.0000 0.5000  plane waves:   15008
 k-point 20 :   0.5000 0.0000 0.5000  plane waves:   15044
 k-point 21 :   0.0000 0.2500 0.5000  plane waves:   15008
 k-point 22 :   0.2500 0.2500 0.5000  plane waves:   15006
 k-point 23 :   0.5000 0.2500 0.5000  plane waves:   15006
 k-point 24 :   0.0000 0.5000 0.5000  plane waves:   15044

 maximum and minimum number of plane-waves per node :      3774     3707

 maximum number of plane-waves:     15044
 maximum index in each direction: 
   IXMAX=   16   IYMAX=   16   IZMAX=   16
   IXMIN=  -16   IYMIN=  -16   IZMIN=  -16

 NGX is ok and might be reduce to  66
 NGY is ok and might be reduce to  66
 NGZ is ok and might be reduce to  66

 real space projection operators:
  total allocation   :      41366.95 KBytes
  max/ min on nodes  :      10760.00       9935.05


 parallel 3D FFT for wavefunctions:
    minimum data exchange during FFTs selected (reduces bandwidth)
 parallel 3D FFT for charge:
    minimum data exchange during FFTs selected (reduces bandwidth)


 total amount of memory used by VASP on root node   334143. kBytes
========================================================================

   base      :      30000. kBytes
   nonlr-proj:      20524. kBytes
   fftplans  :      28296. kBytes
   grid      :      21369. kBytes
   one-center:        559. kBytes
   wavefun   :     233395. kBytes

     INWAV:  cpu time    0.0000: real time    0.0002
 Broyden mixing: mesh for mixing (old mesh)
   NGX = 33   NGY = 33   NGZ = 33
  (NGX  =140   NGY  =140   NGZ  =140)
  gives a total of  35937 points

 initial charge density was supplied:
 charge density of overlapping atoms calculated
 number of electron     432.0000000 magnetization      36.0000000
 keeping initial charge density in first step


--------------------------------------------------------------------------------------------------------


 Maximum index for non-local projection operator         1589
 Maximum index for augmentation-charges         6365 (set IRDMAX)


--------------------------------------------------------------------------------------------------------


 First call to EWALD:  gamma=   0.169
 Maximum number of real-space cells 3x 3x 3
 Maximum number of reciprocal cells 3x 3x 3

 FEWALD executed in parallel
    FEWALD:  cpu time    0.0160: real time    0.0171


----------------------------------------- Iteration    1(   1)  ---------------------------------------


    POTLOK:  cpu time    1.3280: real time    1.3318
    SETDIJ:  cpu time    1.9160: real time    1.9300
     EDDAV:  cpu time  800.1040: real time  806.4194
       DOS:  cpu time    0.0480: real time    0.0464
    --------------------------------------------
      LOOP:  cpu time  803.4040: real time  809.7415

 eigenvalue-minimisations  : 29112
 total energy-change (2. order) : 0.3246299E+04  (-0.1145487E+05)
 number of electron     432.0000000 magnetization      36.0000000
 augmentation part      432.0000000 magnetization      36.0000000

 Free energy of the ion-electron system (eV)
  ---------------------------------------------------
  alpha Z        PSCENC =      1700.89082154
  Ewald energy   TEWEN  =    -21119.69299686
  -Hartree energ DENC   =     -3905.03795311
  -exchange      EXHF   =         0.00000000
  -V(xc)+E(xc)   XCENC  =      -848.08545272
  PAW double counting   =     14295.91323732   -12980.49464661
  entropy T*S    EENTRO =        -0.00246665
  eigenvalues    EBANDS =      4973.59911966
  atomic energy  EATOM  =     21129.20924906
  Solvation  Ediel_sol  =         0.00000000
  ---------------------------------------------------
  free energy    TOTEN  =      3246.29891164 eV

  energy without entropy =     3246.30137828  energy(sigma->0) =     3246.29973385


--------------------------------------------------------------------------------------------------------




----------------------------------------- Iteration    1(   2)  ---------------------------------------


     EDDAV:  cpu time  941.1320: real time  947.5320
       DOS:  cpu time    0.0520: real time    0.0542
    --------------------------------------------
      LOOP:  cpu time  941.1840: real time  947.5908

 eigenvalue-minimisations  : 28800
 total energy-change (2. order) :-0.3330901E+04  (-0.3199469E+04)
 number of electron     432.0000000 magnetization      36.0000000
 augmentation part      432.0000000 magnetization      36.0000000

 Free energy of the ion-electron system (eV)
  ---------------------------------------------------
  alpha Z        PSCENC =      1700.89082154
  Ewald energy   TEWEN  =    -21119.69299686
  -Hartree energ DENC   =     -3905.03795311
  -exchange      EXHF   =         0.00000000
  -V(xc)+E(xc)   XCENC  =      -848.08545272
  PAW double counting   =     14295.91323732   -12980.49464661
  entropy T*S    EENTRO =        -0.00779367
  eigenvalues    EBANDS =      1642.70390466
  atomic energy  EATOM  =     21129.20924906
  Solvation  Ediel_sol  =         0.00000000
  ---------------------------------------------------
  free energy    TOTEN  =       -84.60163038 eV

  energy without entropy =      -84.59383671  energy(sigma->0) =      -84.59903249


--------------------------------------------------------------------------------------------------------




----------------------------------------- Iteration    1(   3)  ---------------------------------------


     EDDAV:  cpu time 1287.0080: real time 1295.7970
       DOS:  cpu time    0.0560: real time    0.0585
    --------------------------------------------
      LOOP:  cpu time 1287.0880: real time 1295.8947

 eigenvalue-minimisations  : 42504
 total energy-change (2. order) :-0.4176518E+03  (-0.3743918E+03)
 number of electron     432.0000000 magnetization      36.0000000
 augmentation part      432.0000000 magnetization      36.0000000

 Free energy of the ion-electron system (eV)
  ---------------------------------------------------
  alpha Z        PSCENC =      1700.89082154
  Ewald energy   TEWEN  =    -21119.69299686
  -Hartree energ DENC   =     -3905.03795311
  -exchange      EXHF   =         0.00000000
  -V(xc)+E(xc)   XCENC  =      -848.08545272
  PAW double counting   =     14295.91323732   -12980.49464661
  entropy T*S    EENTRO =        -0.06973993
  eigenvalues    EBANDS =      1225.11401299
  atomic energy  EATOM  =     21129.20924906
  Solvation  Ediel_sol  =         0.00000000
  ---------------------------------------------------
  free energy    TOTEN  =      -502.25346830 eV

  energy without entropy =     -502.18372838  energy(sigma->0) =     -502.23022166


--------------------------------------------------------------------------------------------------------




----------------------------------------- Iteration    1(   4)  ---------------------------------------


     EDDAV:  cpu time 1386.8040: real time 1396.2369
       DOS:  cpu time    0.0600: real time    0.0594
    --------------------------------------------
      LOOP:  cpu time 1386.8760: real time 1396.3222

 eigenvalue-minimisations  : 46368
 total energy-change (2. order) :-0.4173178E+02  (-0.3696209E+02)
 number of electron     432.0000000 magnetization      36.0000000
 augmentation part      432.0000000 magnetization      36.0000000

 Free energy of the ion-electron system (eV)
  ---------------------------------------------------
  alpha Z        PSCENC =      1700.89082154
  Ewald energy   TEWEN  =    -21119.69299686
  -Hartree energ DENC   =     -3905.03795311
  -exchange      EXHF   =         0.00000000
  -V(xc)+E(xc)   XCENC  =      -848.08545272
  PAW double counting   =     14295.91323732   -12980.49464661
  entropy T*S    EENTRO =        -0.05652683
  eigenvalues    EBANDS =      1183.36902173
  atomic energy  EATOM  =     21129.20924906
  Solvation  Ediel_sol  =         0.00000000
  ---------------------------------------------------
  free energy    TOTEN  =      -543.98524647 eV

  energy without entropy =     -543.92871964  energy(sigma->0) =     -543.96640420


--------------------------------------------------------------------------------------------------------




----------------------------------------- Iteration    1(   5)  ---------------------------------------


     EDDAV:  cpu time 1433.4760: real time 1443.6430
       DOS:  cpu time    0.0600: real time    0.0574
    CHARGE:  cpu time   48.5920: real time   48.9199
    MIXING:  cpu time    0.0560: real time    0.0568
    --------------------------------------------
      LOOP:  cpu time 1482.1960: real time 1492.7100

 eigenvalue-minimisations  : 48920
 total energy-change (2. order) :-0.2868240E+01  (-0.2708205E+01)
 number of electron     432.0000001 magnetization      39.7944741
 augmentation part       60.2196704 magnetization      21.5486778

 Broyden mixing:
  rms(total) = 0.61272E+01    rms(broyden)= 0.61256E+01
  rms(prec ) = 0.79558E+01
  weight for this iteration     100.00

 Free energy of the ion-electron system (eV)
  ---------------------------------------------------
  alpha Z        PSCENC =      1700.89082154
  Ewald energy   TEWEN  =    -21119.69299686
  -Hartree energ DENC   =     -3905.03795311
  -exchange      EXHF   =         0.00000000
  -V(xc)+E(xc)   XCENC  =      -848.08545272
  PAW double counting   =     14295.91323732   -12980.49464661
  entropy T*S    EENTRO =        -0.05123376
  eigenvalues    EBANDS =      1180.49548860
  atomic energy  EATOM  =     21129.20924906
  Solvation  Ediel_sol  =         0.00000000
  ---------------------------------------------------
  free energy    TOTEN  =      -546.85348653 eV

  energy without entropy =     -546.80225278  energy(sigma->0) =     -546.83640861


--------------------------------------------------------------------------------------------------------




----------------------------------------- Iteration    1(   6)  ---------------------------------------


    POTLOK:  cpu time    1.7080: real time    1.7220
    SETDIJ:  cpu time    2.4480: real time    2.4689
     EDDAV:  cpu time 1305.5680: real time 1315.4579
       DOS:  cpu time    0.0600: real time    0.0637
    CHARGE:  cpu time   48.4040: real time   48.7619
    MIXING:  cpu time    0.1040: real time    0.1061
    --------------------------------------------
      LOOP:  cpu time 1358.3000: real time 1368.5975

 eigenvalue-minimisations  : 43668
 total energy-change (2. order) :-0.6642988E+02  (-0.1400637E+03)
 number of electron     432.0000004 magnetization      39.5619458
 augmentation part      144.4182859 magnetization      33.8132743

 Broyden mixing:
  rms(total) = 0.93832E+01    rms(broyden)= 0.93819E+01
  rms(prec ) = 0.12657E+02
  weight for this iteration     100.00

 eigenvalues of (default mixing * dielectric matrix)
  average eigenvalue GAMMA=   0.4096
  0.4096

 Free energy of the ion-electron system (eV)
  ---------------------------------------------------
  alpha Z        PSCENC =      1700.89082154
  Ewald energy   TEWEN  =    -21119.69299686
  -Hartree energ DENC   =     -3183.32294829
  -exchange      EXHF   =         0.00000000
  -V(xc)+E(xc)   XCENC  =      -859.97779587
  PAW double counting   =     13315.38910690   -11919.07850000
  entropy T*S    EENTRO =        -0.22334970
  eigenvalues    EBANDS =       323.52305067
  atomic energy  EATOM  =     21129.20924906
  Solvation  Ediel_sol  =         0.00000000
  ---------------------------------------------------
  free energy    TOTEN  =      -613.28336255 eV

  energy without entropy =     -613.06001285  energy(sigma->0) =     -613.20891265


--------------------------------------------------------------------------------------------------------




----------------------------------------- Iteration    1(   7)  ---------------------------------------


    POTLOK:  cpu time    1.6720: real time    1.6899
    SETDIJ:  cpu time    2.4520: real time    2.4698
     EDDAV:  cpu time 1379.3080: real time 1388.6700
       DOS:  cpu time    0.0640: real time    0.0628
    CHARGE:  cpu time   48.3480: real time   48.6827
    MIXING:  cpu time    0.0840: real time    0.0815
    --------------------------------------------
      LOOP:  cpu time 1431.9320: real time 1441.7124

 eigenvalue-minimisations  : 46296
 total energy-change (2. order) : 0.1097959E+03  (-0.6130996E+02)
 number of electron     432.0000002 magnetization      40.5765111
 augmentation part       87.0922395 magnetization      20.8778620

 Broyden mixing:
  rms(total) = 0.42278E+01    rms(broyden)= 0.42262E+01
  rms(prec ) = 0.57286E+01
  weight for this iteration     100.00

 eigenvalues of (default mixing * dielectric matrix)
  average eigenvalue GAMMA=   0.2135
  0.4125  0.0145

 Free energy of the ion-electron system (eV)
  ---------------------------------------------------
  alpha Z        PSCENC =      1700.89082154
  Ewald energy   TEWEN  =    -21119.69299686
  -Hartree energ DENC   =     -3616.58991497
  -exchange      EXHF   =         0.00000000
  -V(xc)+E(xc)   XCENC  =      -845.95979938
  PAW double counting   =     14395.30735387   -13075.07128556
  entropy T*S    EENTRO =         0.03036236
  eigenvalues    EBANDS =       928.38875362
  atomic energy  EATOM  =     21129.20924906
  Solvation  Ediel_sol  =         0.00000000
  ---------------------------------------------------
  free energy    TOTEN  =      -503.48745631 eV

  energy without entropy =     -503.51781867  energy(sigma->0) =     -503.49757710


--------------------------------------------------------------------------------------------------------




----------------------------------------- Iteration    1(   8)  ---------------------------------------


    POTLOK:  cpu time    1.7160: real time    1.7287
    SETDIJ:  cpu time    2.4120: real time    2.4336
     EDDAV:  cpu time 1326.1640: real time 1335.7162
       DOS:  cpu time    0.0560: real time    0.0567
    CHARGE:  cpu time   48.0960: real time   48.4260
    MIXING:  cpu time    0.0760: real time    0.0738
    --------------------------------------------
      LOOP:  cpu time 1378.5240: real time 1388.4431

 eigenvalue-minimisations  : 44064
 total energy-change (2. order) : 0.1786725E+01  (-0.6337574E+01)
 number of electron     432.0000002 magnetization      40.2126771
 augmentation part       84.6516843 magnetization      19.0977529

 Broyden mixing:
  rms(total) = 0.28516E+01    rms(broyden)= 0.28513E+01
  rms(prec ) = 0.33327E+01
  weight for this iteration     100.00

 eigenvalues of (default mixing * dielectric matrix)
  average eigenvalue GAMMA=   0.3869
  0.6468  0.3803  0.1337

 Free energy of the ion-electron system (eV)
  ---------------------------------------------------
  alpha Z        PSCENC =      1700.89082154
  Ewald energy   TEWEN  =    -21119.69299686
  -Hartree energ DENC   =     -3615.62096348
  -exchange      EXHF   =         0.00000000
  -V(xc)+E(xc)   XCENC  =      -844.46805204
  PAW double counting   =     14429.19503492   -13111.23157581
  entropy T*S    EENTRO =         0.04109532
  eigenvalues    EBANDS =       929.97665568
  atomic energy  EATOM  =     21129.20924906
  Solvation  Ediel_sol  =         0.00000000
  ---------------------------------------------------
  free energy    TOTEN  =      -501.70073168 eV

  energy without entropy =     -501.74182699  energy(sigma->0) =     -501.71443012


--------------------------------------------------------------------------------------------------------




----------------------------------------- Iteration    1(   9)  ---------------------------------------


    POTLOK:  cpu time    1.6680: real time    1.6805
    SETDIJ:  cpu time    2.4600: real time    2.4778
     EDDAV:  cpu time 1350.8520: real time 1360.2350
       DOS:  cpu time    0.0600: real time    0.0608
    CHARGE:  cpu time   47.8960: real time   48.2238
    MIXING:  cpu time    0.0800: real time    0.0790
    --------------------------------------------
      LOOP:  cpu time 1403.0160: real time 1412.7705

 eigenvalue-minimisations  : 45148
 total energy-change (2. order) :-0.4998001E+00  (-0.3072839E+00)
 number of electron     432.0000002 magnetization      38.1835382
 augmentation part       84.0099241 magnetization      17.2013295

 Broyden mixing:
  rms(total) = 0.29708E+01    rms(broyden)= 0.29708E+01
  rms(prec ) = 0.35306E+01
  weight for this iteration     100.00

 eigenvalues of (default mixing * dielectric matrix)
  average eigenvalue GAMMA=   0.4141
  1.0396  0.3883  0.1300  0.0983

 Free energy of the ion-electron system (eV)
  ---------------------------------------------------
  alpha Z        PSCENC =      1700.89082154
  Ewald energy   TEWEN  =    -21119.69299686
  -Hartree energ DENC   =     -3617.21301321
  -exchange      EXHF   =         0.00000000
  -V(xc)+E(xc)   XCENC  =      -844.95227061
  PAW double counting   =     14422.45437055   -13104.07858436
  entropy T*S    EENTRO =         0.03185635
  eigenvalues    EBANDS =       931.15003579
  atomic energy  EATOM  =     21129.20924906
  Solvation  Ediel_sol  =         0.00000000
  ---------------------------------------------------
  free energy    TOTEN  =      -502.20053174 eV

  energy without entropy =     -502.23238809  energy(sigma->0) =     -502.21115053


--------------------------------------------------------------------------------------------------------




----------------------------------------- Iteration    1(  10)  ---------------------------------------


    POTLOK:  cpu time    1.6560: real time    1.6679
    SETDIJ:  cpu time    2.4880: real time    2.5037
     EDDAV:  cpu time 1383.5240: real time 1393.0631
       DOS:  cpu time    0.0560: real time    0.0565
    CHARGE:  cpu time   45.6680: real time   45.9724
    MIXING:  cpu time    0.0840: real time    0.0863
    --------------------------------------------
      LOOP:  cpu time 1433.4760: real time 1443.3574

 eigenvalue-minimisations  : 48456
 total energy-change (2. order) : 0.1203778E+01  (-0.9109565E-01)
 number of electron     432.0000002 magnetization      40.8919802
 augmentation part       83.7057458 magnetization      20.5558756

 Broyden mixing:
  rms(total) = 0.29618E+01    rms(broyden)= 0.29617E+01
  rms(prec ) = 0.34541E+01
  weight for this iteration     100.00

 eigenvalues of (default mixing * dielectric matrix)
  average eigenvalue GAMMA=   0.4142
  0.7208  0.7208  0.3679  0.1652  0.0963

 Free energy of the ion-electron system (eV)
  ---------------------------------------------------
  alpha Z        PSCENC =      1700.89082154
  Ewald energy   TEWEN  =    -21119.69299686
  -Hartree energ DENC   =     -3622.22858631
  -exchange      EXHF   =         0.00000000
  -V(xc)+E(xc)   XCENC  =      -847.37178344
  PAW double counting   =     14391.13554298   -13070.30816495
  entropy T*S    EENTRO =         0.00282881
  eigenvalues    EBANDS =       937.36633535
  atomic energy  EATOM  =     21129.20924906
  Solvation  Ediel_sol  =         0.00000000
  ---------------------------------------------------
  free energy    TOTEN  =      -500.99675381 eV

  energy without entropy =     -500.99958262  energy(sigma->0) =     -500.99769675


--------------------------------------------------------------------------------------------------------




----------------------------------------- Iteration    1(  11)  ---------------------------------------


    POTLOK:  cpu time    1.6280: real time    1.6389
    SETDIJ:  cpu time    2.2440: real time    2.2617
     EDDAV:  cpu time 1534.1920: real time 1544.9041
       DOS:  cpu time    0.0600: real time    0.0611
    CHARGE:  cpu time   47.6440: real time   47.9886
    MIXING:  cpu time    0.0560: real time    0.0550
    --------------------------------------------
      LOOP:  cpu time 1585.8280: real time 1596.9160

 eigenvalue-minimisations  : 53472
 total energy-change (2. order) :-0.3031270E+01  (-0.2462320E+00)
 number of electron     432.0000002 magnetization      52.9505499
 augmentation part       83.2570730 magnetization      32.1322807

 Broyden mixing:
  rms(total) = 0.34259E+01    rms(broyden)= 0.34257E+01
  rms(prec ) = 0.43518E+01
  weight for this iteration     100.00

 eigenvalues of (default mixing * dielectric matrix)
  average eigenvalue GAMMA=   0.5057
  1.1543  1.1543  0.3596  0.1780  0.1024  0.0858

 Free energy of the ion-electron system (eV)
  ---------------------------------------------------
  alpha Z        PSCENC =      1700.89082154
  Ewald energy   TEWEN  =    -21119.69299686
  -Hartree energ DENC   =     -3625.07720182
  -exchange      EXHF   =         0.00000000
  -V(xc)+E(xc)   XCENC  =      -845.12484602
  PAW double counting   =     14413.12276471   -13096.03563676
  entropy T*S    EENTRO =         0.00303301
  eigenvalues    EBANDS =       938.67678970
  atomic energy  EATOM  =     21129.20924906
  Solvation  Ediel_sol  =         0.00000000
  ---------------------------------------------------
  free energy    TOTEN  =      -504.02802344 eV

  energy without entropy =     -504.03105645  energy(sigma->0) =     -504.02903444


--------------------------------------------------------------------------------------------------------




----------------------------------------- Iteration    1(  12)  ---------------------------------------


    POTLOK:  cpu time    1.6160: real time    1.6274
    SETDIJ:  cpu time    2.2480: real time    2.2655
     EDDAV:  cpu time 1443.0880: real time 1453.2829
       DOS:  cpu time    0.0600: real time    0.0588
    CHARGE:  cpu time   48.3320: real time   48.6777
    MIXING:  cpu time    0.1280: real time    0.1288
    --------------------------------------------
      LOOP:  cpu time 1495.4720: real time 1506.0515

 eigenvalue-minimisations  : 50320
 total energy-change (2. order) :-0.4169953E+01  (-0.1094165E+01)
 number of electron     432.0000002 magnetization      62.9106404
 augmentation part       81.1462875 magnetization      38.2076096

 Broyden mixing:
  rms(total) = 0.28590E+01    rms(broyden)= 0.28587E+01
  rms(prec ) = 0.34909E+01
  weight for this iteration     100.00

 eigenvalues of (default mixing * dielectric matrix)
  average eigenvalue GAMMA=   0.5689
  1.4961  1.4961  0.3856  0.2223  0.1887  0.1014  0.0923

 Free energy of the ion-electron system (eV)
  ---------------------------------------------------
  alpha Z        PSCENC =      1700.89082154
  Ewald energy   TEWEN  =    -21119.69299686
  -Hartree energ DENC   =     -3636.22255480
  -exchange      EXHF   =         0.00000000
  -V(xc)+E(xc)   XCENC  =      -833.96859897
  PAW double counting   =     14502.35736062   -13201.59872337
  entropy T*S    EENTRO =         0.09354312
  eigenvalues    EBANDS =       950.73392275
  atomic energy  EATOM  =     21129.20924906
  Solvation  Ediel_sol  =         0.00000000
  ---------------------------------------------------
  free energy    TOTEN  =      -508.19797689 eV

  energy without entropy =     -508.29152002  energy(sigma->0) =     -508.22915793


--------------------------------------------------------------------------------------------------------




----------------------------------------- Iteration    1(  13)  ---------------------------------------


    POTLOK:  cpu time    1.6760: real time    1.6843
    SETDIJ:  cpu time    2.2840: real time    2.3020
     EDDAV:  cpu time 1492.0080: real time 1502.6619
       DOS:  cpu time    0.0600: real time    0.0570
    CHARGE:  cpu time   48.2520: real time   48.6001
    MIXING:  cpu time    0.0880: real time    0.0881
    --------------------------------------------
      LOOP:  cpu time 1544.3680: real time 1555.4015

 eigenvalue-minimisations  : 51936
 total energy-change (2. order) :-0.3023827E+01  (-0.6685004E+00)
 number of electron     432.0000002 magnetization      76.3673023
 augmentation part       80.9836675 magnetization      49.9754657

 Broyden mixing:
  rms(total) = 0.25674E+01    rms(broyden)= 0.25672E+01
  rms(prec ) = 0.32550E+01
  weight for this iteration     100.00

 eigenvalues of (default mixing * dielectric matrix)
  average eigenvalue GAMMA=   0.5681
  1.6537  1.6537  0.4104  0.2403  0.2403  0.1562  0.1011  0.0890

 Free energy of the ion-electron system (eV)
  ---------------------------------------------------
  alpha Z        PSCENC =      1700.89082154
  Ewald energy   TEWEN  =    -21119.69299686
  -Hartree energ DENC   =     -3627.88243190
  -exchange      EXHF   =         0.00000000
  -V(xc)+E(xc)   XCENC  =      -822.66453395
  PAW double counting   =     14571.82048177   -13282.05481058
  entropy T*S    EENTRO =         0.06867677
  eigenvalues    EBANDS =       939.08374037
  atomic energy  EATOM  =     21129.20924906
  Solvation  Ediel_sol  =         0.00000000
  ---------------------------------------------------
  free energy    TOTEN  =      -511.22180378 eV

  energy without entropy =     -511.29048055  energy(sigma->0) =     -511.24469604


--------------------------------------------------------------------------------------------------------




----------------------------------------- Iteration    1(  14)  ---------------------------------------


    POTLOK:  cpu time    1.6600: real time    1.6742
    SETDIJ:  cpu time    2.2800: real time    2.2968
     EDDAV:  cpu time 1475.8040: real time 1486.3358
       DOS:  cpu time    0.0560: real time    0.0539
    CHARGE:  cpu time   48.0480: real time   48.3898
    MIXING:  cpu time    0.1320: real time    0.1322
    --------------------------------------------
      LOOP:  cpu time 1527.9840: real time 1538.8929

 eigenvalue-minimisations  : 51504
 total energy-change (2. order) :-0.8507028E+00  (-0.6656890E+00)
 number of electron     432.0000002 magnetization      79.4539039
 augmentation part       82.0459346 magnetization      51.2345652

 Broyden mixing:
  rms(total) = 0.19764E+01    rms(broyden)= 0.19762E+01
  rms(prec ) = 0.25938E+01
  weight for this iteration     100.00

 eigenvalues of (default mixing * dielectric matrix)
  average eigenvalue GAMMA=   0.6169
  1.7281  1.7281  0.6272  0.6272  0.3395  0.1794  0.1319  0.1009  0.0898

 Free energy of the ion-electron system (eV)
  ---------------------------------------------------
  alpha Z        PSCENC =      1700.89082154
  Ewald energy   TEWEN  =    -21119.69299686
  -Hartree energ DENC   =     -3604.17203902
  -exchange      EXHF   =         0.00000000
  -V(xc)+E(xc)   XCENC  =      -805.14579672
  PAW double counting   =     14658.90935569   -13381.80581259
  entropy T*S    EENTRO =         0.03071433
  eigenvalues    EBANDS =       909.70399795
  atomic energy  EATOM  =     21129.20924906
  Solvation  Ediel_sol  =         0.00000000
  ---------------------------------------------------
  free energy    TOTEN  =      -512.07250661 eV

  energy without entropy =     -512.10322094  energy(sigma->0) =     -512.08274472


--------------------------------------------------------------------------------------------------------




----------------------------------------- Iteration    1(  15)  ---------------------------------------


    POTLOK:  cpu time    1.6680: real time    1.6795
    SETDIJ:  cpu time    2.2840: real time    2.3015
     EDDAV:  cpu time 1456.9320: real time 1467.4981
       DOS:  cpu time    0.0560: real time    0.0555
    CHARGE:  cpu time   48.8320: real time   49.1845
    MIXING:  cpu time    0.1000: real time    0.1010
    --------------------------------------------
      LOOP:  cpu time 1509.8720: real time 1520.8270

 eigenvalue-minimisations  : 50312
 total energy-change (2. order) : 0.1324431E+01  (-0.6411557E+00)
 number of electron     432.0000002 magnetization      81.3076536
 augmentation part       84.7871655 magnetization      53.6491037

 Broyden mixing:
  rms(total) = 0.18103E+01    rms(broyden)= 0.18101E+01
  rms(prec ) = 0.23743E+01
  weight for this iteration     100.00

 eigenvalues of (default mixing * dielectric matrix)
  average eigenvalue GAMMA=   0.6039
  1.7898  1.7898  0.7086  0.7086  0.3414  0.1992  0.1780  0.1329  0.0900  0.1011

 Free energy of the ion-electron system (eV)
  ---------------------------------------------------
  alpha Z        PSCENC =      1700.89082154
  Ewald energy   TEWEN  =    -21119.69299686
  -Hartree energ DENC   =     -3579.07788268
  -exchange      EXHF   =         0.00000000
  -V(xc)+E(xc)   XCENC  =      -806.28878582
  PAW double counting   =     14679.27241804   -13398.68822051
  entropy T*S    EENTRO =         0.03780038
  eigenvalues    EBANDS =       883.58952113
  atomic energy  EATOM  =     21129.20924906
  Solvation  Ediel_sol  =         0.00000000
  ---------------------------------------------------
  free energy    TOTEN  =      -510.74807572 eV

  energy without entropy =     -510.78587610  energy(sigma->0) =     -510.76067584


--------------------------------------------------------------------------------------------------------




----------------------------------------- Iteration    1(  16)  ---------------------------------------


    POTLOK:  cpu time    1.7000: real time    1.7124
    SETDIJ:  cpu time    2.3120: real time    2.3313
     EDDAV:  cpu time 1471.8880: real time 1482.5305
       DOS:  cpu time    0.0560: real time    0.0569
    CHARGE:  cpu time   48.4400: real time   48.7992
    MIXING:  cpu time    0.1320: real time    0.1302
    --------------------------------------------
      LOOP:  cpu time 1524.5320: real time 1535.5693

 eigenvalue-minimisations  : 51688
 total energy-change (2. order) : 0.1507824E+01  (-0.4500882E+00)
 number of electron     432.0000002 magnetization      92.0879727
 augmentation part       86.2960059 magnetization      64.4112164

 Broyden mixing:
  rms(total) = 0.12999E+01    rms(broyden)= 0.12998E+01
  rms(prec ) = 0.15151E+01
  weight for this iteration     100.00

 eigenvalues of (default mixing * dielectric matrix)
  average eigenvalue GAMMA=   0.6641
  2.0158  2.0158  0.9314  0.9314  0.4123  0.3272  0.0899  0.1010  0.1313  0.1797
  0.1693

 Free energy of the ion-electron system (eV)
  ---------------------------------------------------
  alpha Z        PSCENC =      1700.89082154
  Ewald energy   TEWEN  =    -21119.69299686
  -Hartree energ DENC   =     -3566.64900451
  -exchange      EXHF   =         0.00000000
  -V(xc)+E(xc)   XCENC  =      -806.73696065
  PAW double counting   =     14696.35004951   -13413.95369807
  entropy T*S    EENTRO =         0.04042601
  eigenvalues    EBANDS =       871.30186185
  atomic energy  EATOM  =     21129.20924906
  Solvation  Ediel_sol  =         0.00000000
  ---------------------------------------------------
  free energy    TOTEN  =      -509.24025212 eV

  energy without entropy =     -509.28067813  energy(sigma->0) =     -509.25372746


--------------------------------------------------------------------------------------------------------




----------------------------------------- Iteration    1(  17)  ---------------------------------------


    POTLOK:  cpu time    1.6840: real time    1.6927
    SETDIJ:  cpu time    2.3040: real time    2.3216
     EDDAV:  cpu time 1315.5320: real time 1325.0577
       DOS:  cpu time    0.0600: real time    0.0584
    CHARGE:  cpu time   46.3680: real time   46.7067
    MIXING:  cpu time    0.1160: real time    0.1176
    --------------------------------------------
      LOOP:  cpu time 1366.0640: real time 1375.9698

 eigenvalue-minimisations  : 45304
 total energy-change (2. order) :-0.3147819E+00  (-0.4275037E+00)
 number of electron     432.0000002 magnetization      95.9857957
 augmentation part       88.7142691 magnetization      67.7889818

 Broyden mixing:
  rms(total) = 0.83734E+00    rms(broyden)= 0.83711E+00
  rms(prec ) = 0.10680E+01
  weight for this iteration     100.00

 eigenvalues of (default mixing * dielectric matrix)
  average eigenvalue GAMMA=   0.6644
  2.0720  2.0720  1.0168  1.0168  0.3958  0.3958  0.3366  0.0899  0.1011  0.1801
  0.1319  0.1639

 Free energy of the ion-electron system (eV)
  ---------------------------------------------------
  alpha Z        PSCENC =      1700.89082154
  Ewald energy   TEWEN  =    -21119.69299686
  -Hartree energ DENC   =     -3540.29487902
  -exchange      EXHF   =         0.00000000
  -V(xc)+E(xc)   XCENC  =      -796.90035688
  PAW double counting   =     14784.57979148   -13506.05461744
  entropy T*S    EENTRO =         0.03030919
  eigenvalues    EBANDS =       838.67764491
  atomic energy  EATOM  =     21129.20924906
  Solvation  Ediel_sol  =         0.00000000
  ---------------------------------------------------
  free energy    TOTEN  =      -509.55503402 eV

  energy without entropy =     -509.58534321  energy(sigma->0) =     -509.56513709


--------------------------------------------------------------------------------------------------------




----------------------------------------- Iteration    1(  18)  ---------------------------------------


    POTLOK:  cpu time    1.6560: real time    1.6694
    SETDIJ:  cpu time    2.2640: real time    2.2817
     EDDAV:  cpu time 1386.4320: real time 1396.2539
       DOS:  cpu time    0.0560: real time    0.0596
    CHARGE:  cpu time   46.8280: real time   47.1601
    MIXING:  cpu time    0.0880: real time    0.0868
    --------------------------------------------
      LOOP:  cpu time 1437.3280: real time 1447.5184

 eigenvalue-minimisations  : 48472
 total energy-change (2. order) : 0.2831782E-01  (-0.1680799E+00)
 number of electron     432.0000002 magnetization      99.5477085
 augmentation part       89.4833236 magnetization      71.1381052

 Broyden mixing:
  rms(total) = 0.51330E+00    rms(broyden)= 0.51315E+00
  rms(prec ) = 0.65719E+00
  weight for this iteration     100.00

 eigenvalues of (default mixing * dielectric matrix)
  average eigenvalue GAMMA=   0.6754
  1.9703  1.9703  1.2135  1.2135  0.6237  0.6237  0.3331  0.0899  0.1011  0.1316
  0.1812  0.1673  0.1613

 Free energy of the ion-electron system (eV)
  ---------------------------------------------------
  alpha Z        PSCENC =      1700.89082154
  Ewald energy   TEWEN  =    -21119.69299686
  -Hartree energ DENC   =     -3531.28772376
  -exchange      EXHF   =         0.00000000
  -V(xc)+E(xc)   XCENC  =      -792.92278028
  PAW double counting   =     14819.46793005   -13542.65833065
  entropy T*S    EENTRO =         0.03023460
  eigenvalues    EBANDS =       827.43688009
  atomic energy  EATOM  =     21129.20924906
  Solvation  Ediel_sol  =         0.00000000
  ---------------------------------------------------
  free energy    TOTEN  =      -509.52671620 eV

  energy without entropy =     -509.55695080  energy(sigma->0) =     -509.53679440


--------------------------------------------------------------------------------------------------------




----------------------------------------- Iteration    1(  19)  ---------------------------------------


    POTLOK:  cpu time    1.6840: real time    1.6931
    SETDIJ:  cpu time    2.2640: real time    2.2829
     EDDAV:  cpu time 1244.8200: real time 1253.5891
       DOS:  cpu time    0.0560: real time    0.0572
    CHARGE:  cpu time   45.8600: real time   46.1822
    MIXING:  cpu time    0.1080: real time    0.1093
    --------------------------------------------
      LOOP:  cpu time 1294.7920: real time 1303.9207

 eigenvalue-minimisations  : 43096
 total energy-change (2. order) :-0.5507757E-01  (-0.4786327E-01)
 number of electron     432.0000002 magnetization     100.0107475
 augmentation part       89.9077857 magnetization      71.2961674

 Broyden mixing:
  rms(total) = 0.31403E+00    rms(broyden)= 0.31396E+00
  rms(prec ) = 0.41230E+00
  weight for this iteration     100.00

 eigenvalues of (default mixing * dielectric matrix)
  average eigenvalue GAMMA=   0.7007
  2.0661  2.0661  1.1422  1.1422  0.8615  0.8615  0.5030  0.3328  0.0899  0.1011
  0.1318  0.1789  0.1748  0.1573

 Free energy of the ion-electron system (eV)
  ---------------------------------------------------
  alpha Z        PSCENC =      1700.89082154
  Ewald energy   TEWEN  =    -21119.69299686
  -Hartree energ DENC   =     -3522.96977481
  -exchange      EXHF   =         0.00000000
  -V(xc)+E(xc)   XCENC  =      -789.37644945
  PAW double counting   =     14860.35238884   -13585.54772889
  entropy T*S    EENTRO =         0.02659227
  eigenvalues    EBANDS =       817.52610451
  atomic energy  EATOM  =     21129.20924906
  Solvation  Ediel_sol  =         0.00000000
  ---------------------------------------------------
  free energy    TOTEN  =      -509.58179378 eV

  energy without entropy =     -509.60838604  energy(sigma->0) =     -509.59065786


--------------------------------------------------------------------------------------------------------




----------------------------------------- Iteration    1(  20)  ---------------------------------------


    POTLOK:  cpu time    1.6520: real time    1.6629
    SETDIJ:  cpu time    2.2520: real time    2.2691
     EDDAV:  cpu time 1418.3400: real time 1428.4175
       DOS:  cpu time    0.0520: real time    0.0548
    CHARGE:  cpu time   42.4360: real time   42.7345
    MIXING:  cpu time    0.1280: real time    0.1278
    --------------------------------------------
      LOOP:  cpu time 1464.8600: real time 1475.2747

 eigenvalue-minimisations  : 50272
 total energy-change (2. order) :-0.3152878E-01  (-0.2285775E-01)
 number of electron     432.0000002 magnetization     101.0636107
 augmentation part       90.0431179 magnetization      72.3480294

 Broyden mixing:
  rms(total) = 0.31328E+00    rms(broyden)= 0.31325E+00
  rms(prec ) = 0.43207E+00
  weight for this iteration     100.00

 eigenvalues of (default mixing * dielectric matrix)
  average eigenvalue GAMMA=   0.7100
  2.1360  2.1360  1.2286  1.2286  1.1458  0.8679  0.5365  0.3329  0.0899  0.1011
  0.1317  0.2025  0.1809  0.1717  0.1591

 Free energy of the ion-electron system (eV)
  ---------------------------------------------------
  alpha Z        PSCENC =      1700.89082154
  Ewald energy   TEWEN  =    -21119.69299686
  -Hartree energ DENC   =     -3520.62792604
  -exchange      EXHF   =         0.00000000
  -V(xc)+E(xc)   XCENC  =      -789.44708190
  PAW double counting   =     14867.73557368   -13593.08395115
  entropy T*S    EENTRO =         0.02661466
  eigenvalues    EBANDS =       815.37637446
  atomic energy  EATOM  =     21129.20924906
  Solvation  Ediel_sol  =         0.00000000
  ---------------------------------------------------
  free energy    TOTEN  =      -509.61332256 eV

  energy without entropy =     -509.63993722  energy(sigma->0) =     -509.62219411


--------------------------------------------------------------------------------------------------------




----------------------------------------- Iteration    1(  21)  ---------------------------------------


    POTLOK:  cpu time    1.6520: real time    1.6605
    SETDIJ:  cpu time    2.2840: real time    2.3027
     EDDAV:  cpu time 1427.0600: real time 1437.5347
       DOS:  cpu time    0.0560: real time    0.0570
    CHARGE:  cpu time   45.5360: real time   45.8565
    MIXING:  cpu time    0.1320: real time    0.1328
    --------------------------------------------
      LOOP:  cpu time 1476.7200: real time 1487.5529

 eigenvalue-minimisations  : 49904
 total energy-change (2. order) : 0.2237951E-01  (-0.1696306E-01)
 number of electron     432.0000002 magnetization     103.1915741
 augmentation part       90.1781872 magnetization      74.3640793

 Broyden mixing:
  rms(total) = 0.17836E+00    rms(broyden)= 0.17832E+00
  rms(prec ) = 0.21592E+00
  weight for this iteration     100.00

 eigenvalues of (default mixing * dielectric matrix)
  average eigenvalue GAMMA=   0.7482
  2.3869  1.8074  1.5153  1.5153  1.0935  1.0935  0.6374  0.5643  0.3328  0.0899
  0.1011  0.1317  0.1902  0.1796  0.1737  0.1579

 Free energy of the ion-electron system (eV)
  ---------------------------------------------------
  alpha Z        PSCENC =      1700.89082154
  Ewald energy   TEWEN  =    -21119.69299686
  -Hartree energ DENC   =     -3516.54622336
  -exchange      EXHF   =         0.00000000
  -V(xc)+E(xc)   XCENC  =      -789.34109788
  PAW double counting   =     14880.69509610   -13606.64845038
  entropy T*S    EENTRO =         0.02505301
  eigenvalues    EBANDS =       811.81760572
  atomic energy  EATOM  =     21129.20924906
  Solvation  Ediel_sol  =         0.00000000
  ---------------------------------------------------
  free energy    TOTEN  =      -509.59094305 eV

  energy without entropy =     -509.61599605  energy(sigma->0) =     -509.59929405


--------------------------------------------------------------------------------------------------------




----------------------------------------- Iteration    1(  22)  ---------------------------------------


    POTLOK:  cpu time    1.6480: real time    1.6589
    SETDIJ:  cpu time    2.2800: real time    2.3005
     EDDAV:  cpu time 1402.3880: real time 1412.6753
       DOS:  cpu time    0.0600: real time    0.0599
    CHARGE:  cpu time   44.6000: real time   44.9106
    MIXING:  cpu time    0.1240: real time    0.1229
    --------------------------------------------
      LOOP:  cpu time 1451.1040: real time 1461.7359

 eigenvalue-minimisations  : 49784
 total energy-change (2. order) :-0.2896161E-01  (-0.8864252E-02)
 number of electron     432.0000002 magnetization     103.6668954
 augmentation part       90.0932105 magnetization      74.5690176

 Broyden mixing:
  rms(total) = 0.10670E+00    rms(broyden)= 0.10665E+00
  rms(prec ) = 0.15257E+00
  weight for this iteration     100.00

 eigenvalues of (default mixing * dielectric matrix)
  average eigenvalue GAMMA=   0.7450
  2.6625  1.7931  1.5674  1.5674  1.0731  1.0731  0.6765  0.5448  0.3329  0.3510
  0.0899  0.1011  0.1317  0.1580  0.1736  0.1797  0.1899

 Free energy of the ion-electron system (eV)
  ---------------------------------------------------
  alpha Z        PSCENC =      1700.89082154
  Ewald energy   TEWEN  =    -21119.69299686
  -Hartree energ DENC   =     -3514.98131363
  -exchange      EXHF   =         0.00000000
  -V(xc)+E(xc)   XCENC  =      -786.75402791
  PAW double counting   =     14893.05492483   -13620.95928303
  entropy T*S    EENTRO =         0.01895442
  eigenvalues    EBANDS =       809.59376692
  atomic energy  EATOM  =     21129.20924906
  Solvation  Ediel_sol  =         0.00000000
  ---------------------------------------------------
  free energy    TOTEN  =      -509.61990466 eV

  energy without entropy =     -509.63885908  energy(sigma->0) =     -509.62622280


--------------------------------------------------------------------------------------------------------




----------------------------------------- Iteration    1(  23)  ---------------------------------------


    POTLOK:  cpu time    1.6320: real time    1.6431
    SETDIJ:  cpu time    2.2680: real time    2.2848
     EDDAV:  cpu time 1437.6920: real time 1448.2205
       DOS:  cpu time    0.0560: real time    0.0546
    CHARGE:  cpu time   44.7440: real time   45.0538
    MIXING:  cpu time    0.1240: real time    0.1233
    --------------------------------------------
      LOOP:  cpu time 1486.5160: real time 1497.3868

 eigenvalue-minimisations  : 51112
 total energy-change (2. order) : 0.4555973E-02  (-0.3970817E-02)
 number of electron     432.0000002 magnetization     103.6238057
 augmentation part       90.0613360 magnetization      74.4745140

 Broyden mixing:
  rms(total) = 0.51258E-01    rms(broyden)= 0.51222E-01
  rms(prec ) = 0.70047E-01
[...]
    FORCOR:  cpu time    1.5000: real time    1.5001
    FORHAR:  cpu time    0.3320: real time    0.3333
    MIXING:  cpu time    0.0800: real time    0.0802
    OFIELD:  cpu time    0.0000: real time    0.0001

  FORCE on cell =-STRESS in cart. coord.  units (eV):
  Direction    XX          YY          ZZ          XY          YZ          ZX
  --------------------------------------------------------------------------------------
  Alpha Z  1700.89082  1700.89082  1700.89082
  Ewald   -7519.78124 -7517.45329 -6082.58552     0.00000    -5.29317    -0.00000
  Hartree   863.96645   865.52481  1785.53343    -0.00000    -1.25908    -0.00000
  E(xc)   -1890.14035 -1890.13877 -1899.96864     0.00004     0.08738     0.00000
  Local    1209.40660  1205.30574 -1207.57013    -0.00054     6.24066     0.00000
  n-local   475.98629   475.96238   451.92178    -0.12738    -0.31631    -0.00367
  augment  1017.90496  1017.92606  1058.46060     0.00060    -0.01518     0.00000
  Kinetic  4142.37109  4142.24292  4193.82530     1.38794    -0.03783     0.00180
  Fock        0.00000     0.00000     0.00000     0.00000     0.00000     0.00000
  -------------------------------------------------------------------------------------
  Total       0.60463     0.26069     0.50765    -0.00000    -0.59353     0.00000
  in kB       0.83921     0.36183     0.70461    -0.00000    -0.82381     0.00000
  external pressure =        0.64 kB  Pullay stress =        0.00 kB


 VOLUME and BASIS-vectors are now :
 -----------------------------------------------------------------------------
  energy-cutoff  :      320.00
  volume of cell :     1154.33
      direct lattice vectors                 reciprocal lattice vectors
    11.000217144  0.000000000  0.000000000     0.090907296  0.052485352 -0.000000000
    -5.500108572  9.526467494  0.000000000     0.000000000  0.104970704  0.000000000
     0.000000000  0.000000000 11.015273102     0.000000000 -0.000000000  0.090783042

  length of vectors
    11.000217144 11.000217144 11.015273102     0.104970704  0.104970704  0.090783042


 FORCES acting on ions
    electron-ion (+dipol)            ewald-force                    non-local-force                 convergence-correction
 -----------------------------------------------------------------------------------------------
   -.940E-01 -.432E+01 0.219E-01   0.119E+00 0.440E+01 -.799E-14   -.284E-01 -.887E-01 -.209E-01   0.330E-03 0.462E-03 0.528E-04
   0.433E+00 0.443E+01 -.307E-01   -.409E+00 -.452E+01 0.568E-12   -.331E-01 0.107E+00 0.274E-01   -.155E-03 0.831E-03 0.146E-02
   -.144E+01 0.126E+00 -.362E-02   0.143E+01 -.125E+00 0.117E-11   0.164E-01 -.201E-02 -.937E-03   -.182E-03 0.224E-03 -.107E-03
   -.693E+01 -.206E-05 0.127E-05   0.708E+01 -.981E-11 -.613E-12   -.166E+00 0.000E+00 0.000E+00   0.260E-03 -.176E-07 0.844E-08
   0.293E+02 0.519E-06 -.398E-06   -.299E+02 0.297E-11 0.123E-11   -.864E+00 0.000E+00 0.000E+00   0.356E-03 -.274E-07 -.108E-07
   -.809E+01 0.177E-05 -.115E-05   0.827E+01 0.983E-11 0.575E-12   -.231E+00 0.000E+00 0.000E+00   -.730E-03 -.204E-07 0.253E-08
   -.144E+01 -.126E+00 0.362E-02   0.143E+01 0.125E+00 -.119E-11   0.164E-01 0.201E-02 0.937E-03   -.182E-03 -.224E-03 0.107E-03
   -.940E-01 0.432E+01 -.219E-01   0.119E+00 -.440E+01 -.641E-12   -.284E-01 0.887E-01 0.209E-01   0.330E-03 -.462E-03 -.528E-04
   0.433E+00 -.443E+01 0.307E-01   -.409E+00 0.452E+01 0.124E-13   -.331E-01 -.107E+00 -.274E-01   -.155E-03 -.831E-03 -.146E-02
   0.182E+00 -.479E+00 -.729E-02   -.173E+00 0.475E+00 -.160E-13   -.810E-02 0.684E-02 0.137E-01   -.523E-03 0.193E-03 -.357E-04
   0.247E+00 0.449E+00 0.936E-02   -.239E+00 -.445E+00 0.632E-12   -.563E-02 -.585E-02 -.147E-01   -.161E-03 -.101E-02 -.148E-02
   -.449E+00 0.321E-01 0.398E-03   0.419E+00 -.308E-01 0.112E-11   0.127E-01 -.140E-02 0.223E-02   0.682E-03 -.989E-04 0.136E-03
   -.633E+00 0.408E-08 -.631E-08   0.635E+00 -.980E-11 -.573E-12   0.373E-02 0.000E+00 0.000E+00   0.339E-03 -.141E-07 0.101E-07
   0.123E+01 -.778E-08 0.340E-08   -.121E+01 0.142E-13 -.115E-13   -.189E-01 0.000E+00 0.000E+00   -.139E-02 0.142E-07 0.188E-07
   -.546E+00 -.243E-08 0.325E-08   0.546E+00 0.984E-11 0.525E-12   0.432E-02 0.000E+00 0.000E+00   0.106E-02 0.214E-08 -.291E-07
   -.449E+00 -.321E-01 -.398E-03   0.419E+00 0.308E-01 -.113E-11   0.127E-01 0.140E-02 -.223E-02   0.682E-03 0.989E-04 -.136E-03
   0.182E+00 0.479E+00 0.729E-02   -.173E+00 -.475E+00 -.668E-12   -.810E-02 -.684E-02 -.137E-01   -.523E-03 -.193E-03 0.357E-04
   0.247E+00 -.449E+00 -.936E-02   -.239E+00 0.445E+00 -.213E-13   -.563E-02 0.585E-02 0.147E-01   -.161E-03 0.101E-02 0.148E-02
   0.181E+00 -.158E+01 -.104E+01   -.232E+00 0.154E+01 0.101E+01   0.484E-01 0.422E-01 0.354E-01   -.697E-03 0.242E-03 -.400E-03
   0.391E+00 0.154E+01 0.103E+01   -.445E+00 -.150E+01 -.100E+01   0.499E-01 -.437E-01 -.374E-01   -.797E-04 0.206E-04 0.240E-03
   -.865E+00 0.741E-01 0.393E-01   0.849E+00 -.691E-01 -.329E-01   0.157E-01 -.584E-02 -.539E-02   0.776E-03 -.882E-04 -.113E-02
   -.230E+01 0.363E-01 -.183E+01   0.231E+01 -.980E-11 0.184E+01   -.128E-03 -.298E-01 -.676E-02   0.317E-03 -.416E-04 -.135E-02
   0.715E+01 -.891E-02 -.957E+00   -.724E+01 0.160E-13 0.959E+00   0.600E-01 0.498E-02 0.110E-01   -.561E-03 0.602E-03 0.121E-02
   -.231E+01 -.172E-01 0.221E+01   0.231E+01 0.983E-11 -.221E+01   0.995E-02 0.215E-01 -.119E-01   0.260E-03 0.501E-03 0.191E-02
   -.850E+00 -.711E-01 0.329E-01   0.849E+00 0.691E-01 -.329E-01   0.205E-02 0.325E-02 -.274E-02   -.184E-03 -.523E-03 -.111E-02
   0.209E+00 0.147E+01 -.974E+00   -.232E+00 -.154E+01 0.101E+01   0.178E-01 0.673E-01 -.349E-01   0.432E-03 -.750E-03 -.385E-03
   0.435E+00 -.142E+01 0.969E+00   -.445E+00 0.150E+01 -.100E+01   0.842E-02 -.747E-01 0.341E-01   -.253E-03 0.329E-04 0.230E-03
   0.209E+00 -.147E+01 0.974E+00   -.232E+00 0.154E+01 -.101E+01   0.178E-01 -.673E-01 0.349E-01   0.432E-03 0.750E-03 0.385E-03
   0.435E+00 0.142E+01 -.969E+00   -.445E+00 -.150E+01 0.100E+01   0.842E-02 0.747E-01 -.341E-01   -.253E-03 -.328E-04 -.230E-03
   -.850E+00 0.711E-01 -.329E-01   0.849E+00 -.691E-01 0.329E-01   0.205E-02 -.325E-02 0.274E-02   -.184E-03 0.523E-03 0.111E-02
   -.230E+01 -.363E-01 0.183E+01   0.231E+01 -.981E-11 -.184E+01   -.128E-03 0.298E-01 0.676E-02   0.317E-03 0.416E-04 0.135E-02
   0.715E+01 0.891E-02 0.957E+00   -.724E+01 0.213E-13 -.959E+00   0.600E-01 -.498E-02 -.110E-01   -.561E-03 -.602E-03 -.121E-02
   -.231E+01 0.172E-01 -.221E+01   0.231E+01 0.984E-11 0.221E+01   0.995E-02 -.215E-01 0.119E-01   0.260E-03 -.501E-03 -.191E-02
   -.865E+00 -.741E-01 -.393E-01   0.849E+00 0.691E-01 0.329E-01   0.157E-01 0.584E-02 0.539E-02   0.776E-03 0.882E-04 0.113E-02
   0.181E+00 0.158E+01 0.104E+01   -.232E+00 -.154E+01 -.101E+01   0.484E-01 -.422E-01 -.354E-01   -.697E-03 -.242E-03 0.400E-03
   0.391E+00 -.154E+01 -.103E+01   -.445E+00 0.150E+01 0.100E+01   0.499E-01 0.437E-01 0.374E-01   -.797E-04 -.206E-04 -.240E-03
   0.202E+00 -.357E-01 -.817E-02   -.194E+00 0.348E-01 0.991E-02   -.255E-02 0.149E-02 -.201E-03   -.133E-02 -.246E-03 -.903E-03
   -.104E+00 0.432E+00 0.677E-01   0.917E-01 -.432E+00 -.609E-01   0.144E-01 0.914E-02 -.115E-01   0.895E-03 -.126E-02 -.829E-03
   -.109E+00 -.395E+00 -.557E-01   0.985E-01 0.398E+00 0.517E-01   0.859E-02 -.970E-02 0.114E-01   0.437E-03 0.433E-03 -.113E-03
   0.268E+00 -.342E+00 -.969E+00   -.267E+00 0.345E+00 0.975E+00   -.646E-02 -.291E-02 -.229E-01   -.101E-02 -.332E-03 0.672E-04
   0.438E+00 0.335E+00 0.972E+00   -.437E+00 -.336E+00 -.964E+00   -.691E-02 0.316E-02 0.169E-02   -.123E-03 0.556E-03 0.706E-03
   -.824E+00 0.187E-01 0.375E-01   0.816E+00 -.150E-01 -.334E-01   -.372E-02 -.690E-02 -.619E-02   0.112E-02 0.106E-03 0.233E-04
   -.481E+00 0.358E+00 -.388E+00   0.467E+00 -.348E+00 0.371E+00   0.245E-01 -.152E-01 0.390E-01   0.658E-03 -.394E-03 -.679E-03
   0.936E+00 0.414E-01 -.521E-01   -.938E+00 -.445E-01 0.610E-01   -.770E-03 0.208E-02 -.105E-01   -.800E-03 0.687E-03 0.783E-03
   -.420E+00 -.396E+00 0.442E+00   0.414E+00 0.387E+00 -.422E+00   0.185E-01 0.129E-01 -.425E-01   0.146E-03 0.448E-03 0.656E-03
   0.661E+00 -.117E+00 0.238E-01   -.666E+00 0.117E+00 -.234E-01   0.811E-02 -.257E-02 -.972E-03   -.134E-03 0.119E-02 0.529E-03
   -.289E+00 0.113E+01 -.986E-01   0.303E+00 -.114E+01 0.953E-01   -.170E-01 0.559E-02 0.857E-03   -.848E-03 -.567E-03 0.456E-03
   -.298E+00 -.103E+01 0.776E-01   0.297E+00 0.104E+01 -.764E-01   -.248E-02 -.577E-02 -.190E-03   0.980E-03 0.741E-03 -.243E-03
   -.490E+01 -.597E+01 0.764E+01   0.486E+01 0.596E+01 -.766E+01   0.291E+00 0.123E+00 -.166E+00   0.829E-03 -.349E-03 0.443E-03
   -.443E+01 0.742E+01 -.950E+01   0.430E+01 -.731E+01 0.943E+01   0.634E+00 -.390E+00 0.510E+00   0.302E-03 0.473E-03 -.489E-03
   -.217E+01 0.403E-01 -.617E-01   0.220E+01 -.514E-01 0.601E-01   -.233E-01 0.952E-02 -.264E-02   -.113E-02 0.965E-03 0.320E-03
   -.187E+01 0.135E+01 0.783E+00   0.186E+01 -.135E+01 -.774E+00   0.766E-02 0.116E-02 -.898E-02   0.103E-02 0.149E-03 0.821E-03
   0.668E+01 0.822E+00 0.532E+00   -.668E+01 -.827E+00 -.530E+00   0.531E-01 -.396E-01 -.322E-01   -.104E-02 -.829E-03 -.745E-03
   -.193E+01 -.162E+01 -.954E+00   0.191E+01 0.161E+01 0.938E+00   0.360E-01 0.197E-01 0.199E-01   0.209E-04 -.178E-02 -.789E-03
   -.187E+01 -.135E+01 -.783E+00   0.186E+01 0.135E+01 0.774E+00   0.766E-02 -.116E-02 0.898E-02   0.103E-02 -.149E-03 -.821E-03
   0.668E+01 -.822E+00 -.532E+00   -.668E+01 0.827E+00 0.530E+00   0.531E-01 0.396E-01 0.322E-01   -.104E-02 0.829E-03 0.745E-03
   -.193E+01 0.162E+01 0.954E+00   0.191E+01 -.161E+01 -.938E+00   0.360E-01 -.197E-01 -.199E-01   0.209E-04 0.178E-02 0.789E-03
   -.217E+01 -.403E-01 0.617E-01   0.220E+01 0.514E-01 -.601E-01   -.233E-01 -.952E-02 0.264E-02   -.113E-02 -.965E-03 -.320E-03
   -.490E+01 0.597E+01 -.764E+01   0.486E+01 -.596E+01 0.766E+01   0.291E+00 -.123E+00 0.166E+00   0.829E-03 0.349E-03 -.443E-03
   -.443E+01 -.742E+01 0.950E+01   0.430E+01 0.731E+01 -.943E+01   0.634E+00 0.390E+00 -.510E+00   0.302E-03 -.473E-03 0.489E-03
   -.289E+00 -.113E+01 0.986E-01   0.303E+00 0.114E+01 -.953E-01   -.170E-01 -.559E-02 -.857E-03   -.848E-03 0.567E-03 -.456E-03
   -.298E+00 0.103E+01 -.776E-01   0.297E+00 -.104E+01 0.764E-01   -.248E-02 0.577E-02 0.190E-03   0.980E-03 -.741E-03 0.243E-03
   0.661E+00 0.117E+00 -.238E-01   -.666E+00 -.117E+00 0.234E-01   0.811E-02 0.257E-02 0.972E-03   -.134E-03 -.119E-02 -.529E-03
   -.481E+00 -.358E+00 0.388E+00   0.467E+00 0.348E+00 -.371E+00   0.245E-01 0.152E-01 -.390E-01   0.658E-03 0.394E-03 0.679E-03
   0.936E+00 -.414E-01 0.521E-01   -.938E+00 0.445E-01 -.610E-01   -.770E-03 -.208E-02 0.105E-01   -.800E-03 -.687E-03 -.783E-03
   -.420E+00 0.396E+00 -.442E+00   0.414E+00 -.387E+00 0.422E+00   0.185E-01 -.129E-01 0.425E-01   0.146E-03 -.448E-03 -.656E-03
   -.824E+00 -.187E-01 -.375E-01   0.816E+00 0.150E-01 0.334E-01   -.372E-02 0.690E-02 0.619E-02   0.112E-02 -.106E-03 -.233E-04
   0.268E+00 0.342E+00 0.969E+00   -.267E+00 -.345E+00 -.975E+00   -.646E-02 0.291E-02 0.229E-01   -.101E-02 0.332E-03 -.671E-04
   0.438E+00 -.335E+00 -.972E+00   -.437E+00 0.336E+00 0.964E+00   -.691E-02 -.316E-02 -.169E-02   -.123E-03 -.556E-03 -.706E-03
   -.104E+00 -.432E+00 -.677E-01   0.917E-01 0.432E+00 0.609E-01   0.144E-01 -.914E-02 0.115E-01   0.895E-03 0.126E-02 0.829E-03
   -.109E+00 0.395E+00 0.557E-01   0.985E-01 -.398E+00 -.517E-01   0.859E-02 0.970E-02 -.114E-01   0.437E-03 -.433E-03 0.113E-03
   0.202E+00 0.357E-01 0.817E-02   -.194E+00 -.348E-01 -.991E-02   -.255E-02 -.149E-02 0.201E-03   -.133E-02 0.246E-03 0.903E-03
 -----------------------------------------------------------------------------------------------
   -.113E+01 0.333E-06 -.193E-06   -.434E-13 -.184E-12 -.288E-12   0.113E+01 0.672E-17 -.173E-16   -.850E-04 0.326E-08 0.120E-08


 POSITION                                       TOTAL-FORCE (eV/Angst)
 -----------------------------------------------------------------------------------
      3.66674      6.35098      0.00000        -0.003107     -0.010649      0.001022
     -3.66674      6.35098      0.00000        -0.008961      0.015755     -0.001773
     -0.00000      6.35098      0.00000         0.010279     -0.000905     -0.004666
      7.33348      0.00000      0.00000        -0.012892     -0.000000      0.000000
      0.23100      0.00000      0.00000        -1.524993     -0.000000      0.000000
      3.66674      0.00000      0.00000        -0.051129     -0.000000      0.000000
      5.50011      3.17549      0.00000         0.010279      0.000905      0.004666
     -1.83337      3.17549      0.00000        -0.003107      0.010649     -0.001022
      1.83337      3.17549      0.00000        -0.008961     -0.015755      0.001773
      3.66674      6.35098      5.50764         0.000106      0.002973      0.006421
     -3.66674      6.35098      5.50764         0.002086     -0.002033     -0.006855
     -0.00000      6.35098      5.50764        -0.016844     -0.000172      0.002763
      7.33348      0.00000      5.50764         0.006325     -0.000000      0.000000
      0.00000      0.00000      5.50764        -0.005151     -0.000000      0.000000
      3.66674      0.00000      5.50764         0.004834     -0.000000      0.000000
      5.50011      3.17549      5.50764        -0.016844      0.000172     -0.002763
     -1.83337      3.17549      5.50764         0.000106     -0.002973     -0.006421
      1.83337      3.17549      5.50764         0.002086      0.002033      0.006855
      3.66674      6.35098      8.26145        -0.003197      0.005537      0.003973
     -3.66674      6.35098      8.26145        -0.003963     -0.010628     -0.006772
     -0.00000      6.35098      8.26145         0.000852     -0.000979     -0.000063
      7.33348      0.00000      8.26145         0.011178      0.006449      0.003030
      0.00000      0.00000      8.26145        -0.025955     -0.003335      0.014768
      3.66674      0.00000      8.26145         0.015462      0.004839     -0.006948
      5.50011      3.17549      8.26145         0.000689      0.000774     -0.003813
     -1.83337      3.17549      8.26145        -0.004724     -0.012642     -0.000004
      1.83337      3.17549      8.26145        -0.000988      0.008452      0.002891
      3.66674      6.35098      2.75382        -0.004724      0.012642      0.000004
     -3.66674      6.35098      2.75382        -0.000988     -0.008452     -0.002891
     -0.00000      6.35098      2.75382         0.000689     -0.000774      0.003813
      7.33348      0.00000      2.75382         0.011178     -0.006449     -0.003030
      0.00000      0.00000      2.75382        -0.025955      0.003335     -0.014768
      3.66674      0.00000      2.75382         0.015462     -0.004839      0.006948
      5.50011      3.17549      2.75382         0.000852      0.000979      0.000063
     -1.83337      3.17549      2.75382        -0.003197     -0.005537     -0.003973
      1.83337      3.17549      2.75382        -0.003963      0.010628      0.006772
      5.50011      5.29248      6.88455         0.003971      0.000347      0.000639
     -1.83337      5.29248      6.88455         0.002865      0.008091     -0.005567
      1.83337      5.29248      6.88455        -0.001201     -0.006148      0.007229
      3.66674      8.46797      6.88455        -0.006287     -0.000570     -0.017470
     -3.66674      8.46797      6.88455        -0.006236      0.002807      0.010382
     -0.00000      8.46797      6.88455        -0.011103     -0.003105     -0.002069
      7.33348      2.11699      6.88455         0.011880     -0.005427      0.021274
     -0.00000      2.11699      6.88455        -0.003297     -0.000367     -0.000796
      3.66674      2.11699      6.88455         0.013174      0.004377     -0.021781
      5.50011      5.29248      1.37691         0.002507     -0.001033     -0.000122
     -1.83337      5.29248      1.37691        -0.003986     -0.000458     -0.001945
      1.83337      5.29248      1.37691        -0.002318      0.003219      0.000744
      3.66674      8.46797      1.37691         0.250185      0.109638     -0.188793
     -3.66674      8.46797      1.37691         0.502568     -0.286946      0.439846
     -0.00000      8.46797      1.37691        -0.002045     -0.000592     -0.003939
      7.33348      2.11699      1.37691        -0.002719      0.002398      0.000353
     -0.00000      2.11699      1.37691         0.057085     -0.045413     -0.031374
      3.66674      2.11699      1.37691         0.013548      0.006112      0.003810
      1.83337      7.40947      9.63836        -0.002719     -0.002398     -0.000353
      5.50011      7.40947      9.63836         0.057085      0.045413      0.031374
     -1.83337      7.40947      9.63836         0.013548     -0.006112     -0.003810
      5.50011      1.05850      9.63836        -0.002045      0.000592      0.003939
      9.16685      1.05850      9.63836         0.250185     -0.109638      0.188793
      1.83337      1.05850      9.63836         0.502568      0.286946     -0.439846
      3.66674      4.23399      9.63836        -0.003986      0.000458      0.001945
      7.33348      4.23399      9.63836        -0.002318     -0.003219     -0.000744
     -0.00000      4.23399      9.63836         0.002507      0.001033      0.000122
      1.83337      7.40947      4.13073         0.011880      0.005427     -0.021274
      5.50011      7.40947      4.13073        -0.003297      0.000367      0.000796
     -1.83337      7.40947      4.13073         0.013174     -0.004377      0.021781
      5.50011      1.05850      4.13073        -0.011103      0.003105      0.002069
      9.16685      1.05850      4.13073        -0.006287      0.000570      0.017470
      1.83337      1.05850      4.13073        -0.006236     -0.002807     -0.010382
      3.66674      4.23399      4.13073         0.002865     -0.008091      0.005567
      7.33348      4.23399      4.13073        -0.001201      0.006148     -0.007229
     -0.00000      4.23399      4.13073         0.003971     -0.000347     -0.000639
 -----------------------------------------------------------------------------------
    total drift:                               -0.004324      0.000000     -0.000000


--------------------------------------------------------------------------------------------------------



  FREE ENERGIE OF THE ION-ELECTRON SYSTEM (eV)
  ---------------------------------------------------
  free  energy   TOTEN  =      -509.61490109 eV

  energy  without entropy=     -509.63157031  energy(sigma->0) =     -509.62045750



--------------------------------------------------------------------------------------------------------


    POTLOK:  cpu time    3.2160: real time    3.2206


--------------------------------------------------------------------------------------------------------


     LOOP+:  cpu time47054.8080: real time47354.2536
    4ORBIT:  cpu time    0.0000: real time    0.0000

 total amount of memory used by VASP on root node   334143. kBytes
========================================================================

   base      :      30000. kBytes
   nonlr-proj:      20524. kBytes
   fftplans  :      28296. kBytes
   grid      :      21369. kBytes
   one-center:        559. kBytes
   wavefun   :     233395. kBytes

  
  
 General timing and accounting informations for this job:
 ========================================================
  
                  Total CPU time used (sec):    47205.691
                            User time (sec):    47043.928
                          System time (sec):      161.764
                         Elapsed time (sec):    47509.749
  
                   Maximum memory used (kb):      385376.
                   Average memory used (kb):           0.
  
                          Minor page faults:        95150
                          Major page faults:            4
                 Voluntary context switches:          568
