 vasp.5.4.1 24Jun15 (build Oct  9 2015 14:58:31) complex                         
 executed on           IFC91_ompi date 2017.05.25  07:06:24
 running on   16 total cores
 distrk:  each k-point on   16 cores,    1 groups
 distr:  one band on NCORES_PER_BAND=   4 cores,    4 groups


--------------------------------------------------------------------------------------------------------


 INCAR:
 POTCAR:   PAW_PBE Mn 06Sep2000                   
 POTCAR:   PAW_PBE As 06Sep2000                   
 POTCAR:   PAW_PBE Mn 06Sep2000                   
   VRHFIN =Mn: d6 s1                                                            
   LEXCH  = PE                                                                  
   EATOM  =   416.8732 eV,   30.6393 Ry                                         
                                                                                
   TITEL  = PAW_PBE Mn 06Sep2000                                                
   LULTRA =        F    use ultrasoft PP ?                                      
   IUNSCR =        1    unscreen: 0-lin 1-nonlin 2-no                           
   RPACOR =    2.000    partial core radius                                     
   POMASS =   54.938; ZVAL   =    7.000    mass and valenz                      
   RCORE  =    2.300    outmost cutoff radius                                   
   RWIGS  =    2.500; RWIGS  =    1.323    wigner-seitz radius (au A)           
   ENMAX  =  269.865; ENMIN  =  202.399 eV                                      
   RCLOC  =    1.725    cutoff for local pot                                    
   LCOR   =        T    correct aug charges                                     
   LPAW   =        T    paw PP                                                  
   EAUG   =  500.711                                                            
   DEXC   =    -.071                                                            
   RMAX   =    2.807    core radius for proj-oper                               
   RAUG   =    1.300    factor for augmentation sphere                          
   RDEP   =    2.338    radius for radial grids                                 
   QCUT   =   -4.454; QGAM   =    8.907    optimization parameters              
                                                                                
   Description                                                                  
     l     E      TYP  RCUT    TYP  RCUT                                        
     2   .000     23  2.300                                                     
     2   .000     23  2.300                                                     
     0   .000     23  2.300                                                     
     0   .000     23  2.300                                                     
     1  -.200     23  2.300                                                     
     1  1.500     23  2.300                                                     
     3   .000      7   .000                                                     
  local pseudopotential read in
  partial core-charges read in
  atomic valenz-charges read in
  non local Contribution for L=           2  read in
    real space projection operators read in
  non local Contribution for L=           2  read in
    real space projection operators read in
  non local Contribution for L=           0  read in
    real space projection operators read in
  non local Contribution for L=           0  read in
    real space projection operators read in
  non local Contribution for L=           1  read in
    real space projection operators read in
  non local Contribution for L=           1  read in
    real space projection operators read in
    PAW grid and wavefunctions read in

   number of l-projection  operators is LMAX  =           6
   number of lm-projection operators is LMMAX =          18

 POTCAR:   PAW_PBE As 06Sep2000                   
   VRHFIN =As: s2p3                                                             
   LEXCH  = PE                                                                  
   EATOM  =   170.0753 eV,   12.5002 Ry                                         
                                                                                
   TITEL  = PAW_PBE As 06Sep2000                                                
   LULTRA =        F    use ultrasoft PP ?                                      
   IUNSCR =        1    unscreen: 0-lin 1-nonlin 2-no                           
   RPACOR =    1.900    partial core radius                                     
   POMASS =   74.922; ZVAL   =    5.000    mass and valenz                      
   RCORE  =    2.100    outmost cutoff radius                                   
   RWIGS  =    2.300; RWIGS  =    1.217    wigner-seitz radius (au A)           
   ENMAX  =  208.680; ENMIN  =  156.510 eV                                      
   ICORE  =        3    local potential                                         
   LCOR   =        T    correct aug charges                                     
   LPAW   =        T    paw PP                                                  
   EAUG   =  462.758                                                            
   DEXC   =    -.108                                                            
   RMAX   =    3.192    core radius for proj-oper                               
   RAUG   =    1.300    factor for augmentation sphere                          
   RDEP   =    2.140    radius for radial grids                                 
   QCUT   =   -3.916; QGAM   =    7.833    optimization parameters              
                                                                                
   Description                                                                  
     l     E      TYP  RCUT    TYP  RCUT                                        
     0   .000     23  2.100                                                     
     0   .000     23  2.100                                                     
     1   .000     23  2.100                                                     
     1   .000     23  2.100                                                     
     2   .000     23  2.100                                                     
     3  -.100      7  2.100                                                     
  local pseudopotential read in
  partial core-charges read in
  atomic valenz-charges read in
  non local Contribution for L=           0  read in
    real space projection operators read in
  non local Contribution for L=           0  read in
    real space projection operators read in
  non local Contribution for L=           1  read in
    real space projection operators read in
  non local Contribution for L=           1  read in
    real space projection operators read in
  non local Contribution for L=           2  read in
    real space projection operators read in
    PAW grid and wavefunctions read in

   number of l-projection  operators is LMAX  =           5
   number of lm-projection operators is LMMAX =          13

 PAW_PBE Mn 06Sep2000                   :
 energy of atom  1       EATOM= -416.8732
 kinetic energy error for atom=    0.0239 (will be added to EATOM!!)
 PAW_PBE As 06Sep2000                   :
 energy of atom  2       EATOM= -170.0753
 kinetic energy error for atom=    0.0021 (will be added to EATOM!!)


 POSCAR: For VASP. System=    MnAs_hex           
  positions in direct lattice
  No initial velocities read in
 exchange correlation table for  LEXCH =        8
   RHO(1)=    0.500       N(1)  =     2000
   RHO(2)=  100.500       N(2)  =     4000



--------------------------------------------------------------------------------------------------------


 ion  position               nearest neighbor table
   1  0.667  0.667  0.000-  56 2.53  55 2.53  46 2.53  49 2.53  48 2.53  61 2.53  19 2.75  28 2.75

   2  0.000  0.667  0.000-  56 2.53  46 2.53  57 2.53  47 2.53  50 2.53  62 2.53  20 2.75  29 2.75

   3  0.333  0.667  0.000-  57 2.53  47 2.53  51 2.53  55 2.53  48 2.53  63 2.53  21 2.75  30 2.75

   4  0.667  0.000  0.000-  49 2.53  59 2.53  58 2.53  52 2.53  55 2.53  51 2.53  22 2.75  31 2.75

   5  0.024  0.000  0.000-  50 2.34  60 2.34  56 2.54  53 2.54  59 2.72  49 2.72  23 2.77  32 2.77

   6  0.333  0.000  0.000-  60 2.53  50 2.53  51 2.53  57 2.53  54 2.53  58 2.53  24 2.75  33 2.75

   7  0.667  0.333  0.000-  52 2.53  62 2.53  58 2.53  54 2.53  61 2.53  46 2.53  25 2.75  34 2.75

   8  0.000  0.333  0.000-  53 2.53  52 2.53  63 2.53  62 2.53  59 2.53  47 2.53  26 2.75  35 2.75

   9  0.333  0.333  0.000-  53 2.53  54 2.53  63 2.53  60 2.53  61 2.53  48 2.53  27 2.75  36 2.75

  10  0.667  0.667  0.500-  65 2.53  64 2.53  37 2.53  40 2.53  39 2.53  70 2.53  19 2.75  28 2.75

  11  0.000  0.667  0.500-  65 2.53  37 2.53  66 2.53  38 2.53  41 2.53  71 2.53  20 2.75  29 2.75

  12  0.333  0.667  0.500-  66 2.53  38 2.53  42 2.53  64 2.53  39 2.53  72 2.53  21 2.75  30 2.75

  13  0.667  0.000  0.500-  40 2.53  68 2.53  67 2.53  43 2.53  64 2.53  42 2.53  22 2.75  31 2.75

  14  0.000  0.000  0.500-  41 2.53  68 2.53  40 2.53  69 2.53  44 2.53  65 2.53  23 2.75  32 2.75

  15  0.333  0.000  0.500-  69 2.53  41 2.53  42 2.53  66 2.53  45 2.53  67 2.53  24 2.75  33 2.75

  16  0.667  0.333  0.500-  43 2.53  71 2.53  67 2.53  45 2.53  70 2.53  37 2.53  25 2.75  34 2.75

  17  0.000  0.333  0.500-  44 2.53  43 2.53  72 2.53  71 2.53  68 2.53  38 2.53  26 2.75  35 2.75

  18  0.333  0.333  0.500-  44 2.53  45 2.53  72 2.53  69 2.53  70 2.53  39 2.53  27 2.75  36 2.75

  19  0.667  0.667  0.750-  56 2.53  55 2.53  37 2.53  40 2.53  39 2.53  61 2.53   1 2.75  10 2.75

  20  0.000  0.667  0.750-  56 2.53  37 2.53  57 2.53  38 2.53  41 2.53  62 2.53   2 2.75  11 2.75

  21  0.333  0.667  0.750-  57 2.53  38 2.53  42 2.53  55 2.53  39 2.53  63 2.53   3 2.75  12 2.75

  22  0.667  0.000  0.750-  40 2.53  59 2.53  58 2.53  43 2.53  55 2.53  42 2.53   4 2.75  13 2.75

  23  0.000  0.000  0.750-  41 2.53  59 2.53  40 2.53  60 2.53  44 2.53  56 2.53  14 2.75   5 2.77

  24  0.333  0.000  0.750-  60 2.53  41 2.53  42 2.53  57 2.53  45 2.53  58 2.53   6 2.75  15 2.75

  25  0.667  0.333  0.750-  43 2.53  62 2.53  58 2.53  45 2.53  61 2.53  37 2.53   7 2.75  16 2.75

  26  0.000  0.333  0.750-  44 2.53  43 2.53  63 2.53  62 2.53  59 2.53  38 2.53   8 2.75  17 2.75

  27  0.333  0.333  0.750-  44 2.53  45 2.53  63 2.53  60 2.53  61 2.53  39 2.53   9 2.75  18 2.75

  28  0.667  0.667  0.250-  65 2.53  64 2.53  46 2.53  49 2.53  48 2.53  70 2.53   1 2.75  10 2.75

  29  0.000  0.667  0.250-  65 2.53  46 2.53  66 2.53  47 2.53  50 2.53  71 2.53   2 2.75  11 2.75

  30  0.333  0.667  0.250-  66 2.53  47 2.53  51 2.53  64 2.53  48 2.53  72 2.53   3 2.75  12 2.75

  31  0.667  0.000  0.250-  49 2.53  68 2.53  67 2.53  52 2.53  64 2.53  51 2.53   4 2.75  13 2.75

  32  0.000  0.000  0.250-  50 2.53  68 2.53  49 2.53  69 2.53  53 2.53  65 2.53  14 2.75   5 2.77

  33  0.333  0.000  0.250-  69 2.53  50 2.53  51 2.53  66 2.53  54 2.53  67 2.53   6 2.75  15 2.75

  34  0.667  0.333  0.250-  52 2.53  71 2.53  67 2.53  54 2.53  70 2.53  46 2.53   7 2.75  16 2.75

  35  0.000  0.333  0.250-  53 2.53  52 2.53  72 2.53  71 2.53  68 2.53  47 2.53   8 2.75  17 2.75

  36  0.333  0.333  0.250-  53 2.53  54 2.53  72 2.53  69 2.53  70 2.53  48 2.53   9 2.75  18 2.75

  37  0.778  0.556  0.625-  11 2.53  20 2.53  19 2.53  10 2.53  16 2.53  25 2.53
  38  0.111  0.556  0.625-  12 2.53  21 2.53  20 2.53  11 2.53  17 2.53  26 2.53
  39  0.444  0.556  0.625-  10 2.53  19 2.53  12 2.53  21 2.53  18 2.53  27 2.53
  40  0.778  0.889  0.625-  13 2.53  22 2.53  14 2.53  23 2.53  10 2.53  19 2.53
  41  0.111  0.889  0.625-  14 2.53  23 2.53  15 2.53  24 2.53  11 2.53  20 2.53
  42  0.444  0.889  0.625-  15 2.53  24 2.53  21 2.53  12 2.53  22 2.53  13 2.53
  43  0.778  0.222  0.625-  16 2.53  25 2.53  17 2.53  26 2.53  13 2.53  22 2.53
  44  0.111  0.222  0.625-  17 2.53  26 2.53  18 2.53  27 2.53  14 2.53  23 2.53
  45  0.444  0.222  0.625-  18 2.53  27 2.53  24 2.53  15 2.53  25 2.53  16 2.53
  46  0.778  0.556  0.125-   2 2.53  29 2.53  28 2.53   1 2.53   7 2.53  34 2.53
  47  0.111  0.556  0.125-   3 2.53  30 2.53  29 2.53   2 2.53   8 2.53  35 2.53
  48  0.444  0.556  0.125-   1 2.53  28 2.53   3 2.53  30 2.53   9 2.53  36 2.53
  49  0.778  0.889  0.125-   4 2.53  31 2.53  32 2.53   1 2.53  28 2.53   5 2.72
  50  0.111  0.889  0.125-   5 2.34  32 2.53   6 2.53  33 2.53   2 2.53  29 2.53
  51  0.444  0.889  0.125-   6 2.53  33 2.53  30 2.53   3 2.53  31 2.53   4 2.53
  52  0.778  0.222  0.125-   7 2.53  34 2.53   8 2.53  35 2.53   4 2.53  31 2.53
  53  0.111  0.222  0.125-   8 2.53  35 2.53   9 2.53  36 2.53  32 2.53   5 2.54
  54  0.444  0.222  0.125-   9 2.53  36 2.53  33 2.53   6 2.53  34 2.53   7 2.53
  55  0.556  0.778  0.875-   1 2.53  19 2.53   4 2.53  22 2.53  21 2.53   3 2.53
  56  0.889  0.778  0.875-   2 2.53  20 2.53  19 2.53   1 2.53  23 2.53   5 2.54
  57  0.222  0.778  0.875-   3 2.53  21 2.53  20 2.53   2 2.53   6 2.53  24 2.53
  58  0.556  0.111  0.875-   4 2.53  22 2.53   7 2.53  25 2.53  24 2.53   6 2.53
  59  0.889  0.111  0.875-  23 2.53  22 2.53   4 2.53   8 2.53  26 2.53   5 2.72
  60  0.222  0.111  0.875-   5 2.34   6 2.53  24 2.53  23 2.53   9 2.53  27 2.53
  61  0.556  0.444  0.875-   9 2.53  27 2.53  25 2.53   7 2.53   1 2.53  19 2.53
  62  0.889  0.444  0.875-   7 2.53  25 2.53   8 2.53  26 2.53   2 2.53  20 2.53
  63  0.222  0.444  0.875-   8 2.53  26 2.53   9 2.53  27 2.53   3 2.53  21 2.53
  64  0.556  0.778  0.375-  10 2.53  28 2.53  13 2.53  31 2.53  30 2.53  12 2.53
  65  0.889  0.778  0.375-  11 2.53  29 2.53  28 2.53  10 2.53  14 2.53  32 2.53
  66  0.222  0.778  0.375-  12 2.53  30 2.53  29 2.53  11 2.53  15 2.53  33 2.53
  67  0.556  0.111  0.375-  13 2.53  31 2.53  16 2.53  34 2.53  33 2.53  15 2.53
  68  0.889  0.111  0.375-  14 2.53  32 2.53  31 2.53  13 2.53  17 2.53  35 2.53
  69  0.222  0.111  0.375-  15 2.53  33 2.53  32 2.53  14 2.53  18 2.53  36 2.53
  70  0.556  0.444  0.375-  18 2.53  36 2.53  34 2.53  16 2.53  10 2.53  28 2.53
  71  0.889  0.444  0.375-  16 2.53  34 2.53  17 2.53  35 2.53  11 2.53  29 2.53
  72  0.222  0.444  0.375-  17 2.53  35 2.53  18 2.53  36 2.53  12 2.53  30 2.53

  LATTYP: Found a hexagonal cell.
 ALAT       =    11.0002171438
 C/A-ratio  =     1.0013686964
  
  Lattice vectors:
  
 A1 = (  11.0002171438,   0.0000000000,   0.0000000000)
 A2 = (  -5.5001085719,   9.5264674936,   0.0000000000)
 A3 = (   0.0000000000,   0.0000000000,  11.0152731015)


Analysis of symmetry for initial positions (statically):
=====================================================================
 Subroutine PRICEL returns:
 Original cell was already a primitive cell.
 

 Routine SETGRP: Setting up the symmetry group for a 
 hexagonal supercell.


 Subroutine GETGRP returns: Found  2 space group operations
 (whereof  2 operations were pure point group operations)
 out of a pool of 24 trial point group operations.


The static configuration has the point symmetry C_2 .


Analysis of symmetry for dynamics (positions and initial velocities):
=====================================================================
 Subroutine PRICEL returns:
 Original cell was already a primitive cell.
 

 Routine SETGRP: Setting up the symmetry group for a 
 hexagonal supercell.


 Subroutine GETGRP returns: Found  2 space group operations
 (whereof  2 operations were pure point group operations)
 out of a pool of 24 trial point group operations.


The dynamic configuration has the point symmetry C_2 .


Analysis of structural, dynamic, and magnetic symmetry:
=====================================================================
 Subroutine PRICEL returns:
 Original cell was already a primitive cell.
 

 Routine SETGRP: Setting up the symmetry group for a 
 hexagonal supercell.


 Subroutine GETGRP returns: Found  2 space group operations
 (whereof  2 operations were pure point group operations)
 out of a pool of 24 trial point group operations.


The magnetic configuration has the point symmetry C_2 .


 Subroutine INISYM returns: Found  2 space group operations
 (whereof  2 operations are pure point group operations),
 and found     1 'primitive' translations



 KPOINTS: Automatic mesh                          

Automatic generation of k-mesh.
Space group operators:
 irot       det(A)        alpha          n_x          n_y          n_z        tau_x        tau_y        tau_z
    1     1.000000     0.000000     1.000000     0.000000     0.000000     0.000000     0.000000     0.000000
    2     1.000000   180.000000     1.000000     0.000000     0.000000     0.000000     0.000000     0.000000
 
 Subroutine IBZKPT returns following result:
 ===========================================
 
 Found     24 irreducible k-points:
 
 Following reciprocal coordinates:
            Coordinates               Weight
  0.000000  0.000000  0.000000      1.000000
  0.250000  0.000000  0.000000      4.000000
  0.500000  0.000000  0.000000      2.000000
  0.000000  0.250000  0.000000      2.000000
  0.250000  0.250000  0.000000      4.000000
  0.500000  0.250000  0.000000      2.000000
  0.000000  0.500000  0.000000      1.000000
  0.000000  0.000000  0.250000      2.000000
  0.250000  0.000000  0.250000      4.000000
  0.500000  0.000000  0.250000      4.000000
 -0.250000  0.000000  0.250000      4.000000
  0.000000  0.250000  0.250000      2.000000
  0.250000  0.250000  0.250000      4.000000
  0.500000  0.250000  0.250000      4.000000
  0.000000  0.500000  0.250000      2.000000
  0.250000  0.500000  0.250000      4.000000
  0.000000 -0.250000  0.250000      2.000000
  0.000000  0.000000  0.500000      1.000000
  0.250000  0.000000  0.500000      4.000000
  0.500000  0.000000  0.500000      2.000000
  0.000000  0.250000  0.500000      2.000000
  0.250000  0.250000  0.500000      4.000000
  0.500000  0.250000  0.500000      2.000000
  0.000000  0.500000  0.500000      1.000000
 
 Following cartesian coordinates:
            Coordinates               Weight
  0.000000  0.000000  0.000000      1.000000
  0.022727  0.013121  0.000000      4.000000
  0.045454  0.026243  0.000000      2.000000
  0.000000  0.026243  0.000000      2.000000
  0.022727  0.039364  0.000000      4.000000
  0.045454  0.052485  0.000000      2.000000
  0.000000  0.052485  0.000000      1.000000
  0.000000  0.000000  0.022696      2.000000
  0.022727  0.013121  0.022696      4.000000
  0.045454  0.026243  0.022696      4.000000
 -0.022727 -0.013121  0.022696      4.000000
  0.000000  0.026243  0.022696      2.000000
  0.022727  0.039364  0.022696      4.000000
  0.045454  0.052485  0.022696      4.000000
  0.000000  0.052485  0.022696      2.000000
  0.022727  0.065607  0.022696      4.000000
  0.000000 -0.026243  0.022696      2.000000
  0.000000  0.000000  0.045392      1.000000
  0.022727  0.013121  0.045392      4.000000
  0.045454  0.026243  0.045392      2.000000
  0.000000  0.026243  0.045392      2.000000
  0.022727  0.039364  0.045392      4.000000
  0.045454  0.052485  0.045392      2.000000
  0.000000  0.052485  0.045392      1.000000
 


--------------------------------------------------------------------------------------------------------




 Dimension of arrays:
   k-points           NKPTS =     24   k-points in BZ     NKDIM =     24   number of bands    NBANDS=    300
   number of dos      NEDOS =    301   number of ions     NIONS =     72
   non local maximal  LDIM  =      6   non local SUM 2l+1 LMDIM =     18
   total plane-waves  NPLWV = 343000
   max r-space proj   IRMAX =   6047   max aug-charges    IRDMAX=  98554
   dimension x,y,z NGX =    70 NGY =   70 NGZ =   70
   dimension x,y,z NGXF=   140 NGYF=  140 NGZF=  140
   support grid    NGXF=   280 NGYF=  280 NGZF=  280
   ions per type =              36  36
 NGX,Y,Z   is equivalent  to a cutoff of  10.58, 10.58, 10.56 a.u.
 NGXF,Y,Z  is equivalent  to a cutoff of  21.16, 21.16, 21.13 a.u.


 I would recommend the setting:
   dimension x,y,z NGX =    64 NGY =   64 NGZ =   64
 SYSTEM =  MnAs hex                                
 POSCAR =  For VASP. System=    MnAs_hex           

 Startparameter for this run:
   NWRITE =      2    write-flag & timer
   PREC   = accura    normal or accurate (medium, high low for compatibility)
   ISTART =      0    job   : 0-new  1-cont  2-samecut
   ICHARG =      2    charge: 1-file 2-atom 10-const
   ISPIN  =      2    spin polarized calculation?
   LNONCOLLINEAR =      F non collinear calculations
   LSORBIT =      F    spin-orbit coupling
   INIWAV =      1    electr: 0-lowe 1-rand  2-diag
   LASPH  =      F    aspherical Exc in radial PAW
   METAGGA=      F    non-selfconsistent MetaGGA calc.

 Electronic Relaxation 1
   ENCUT  =  320.0 eV  23.52 Ry    4.85 a.u.  16.04 16.04 16.07*2*pi/ulx,y,z
   ENINI  =  320.0     initial cutoff
   ENAUG  =  500.7 eV  augmentation charge cutoff
   NELM   =    200;   NELMIN=  2; NELMDL=  0     # of ELM steps 
   EDIFF  = 0.1E-06   stopping-criterion for ELM
   LREAL  =      T    real-space projection
   NLSPLINE    = F    spline interpolate recip. space projectors
   LCOMPAT=      F    compatible to vasp.4.4
   GGA_COMPAT  = T    GGA compatible to vasp.4.4-vasp.4.6
   LMAXPAW     = -100 max onsite density
   LMAXMIX     =    2 max onsite mixed and CHGCAR
   VOSKOWN=      0    Vosko Wilk Nusair interpolation
   ROPT   =    0.00000   0.00000
 Ionic relaxation
   EDIFFG = 0.1E-05   stopping-criterion for IOM
   NSW    =      0    number of steps for IOM
   NBLOCK =      1;   KBLOCK =      1    inner block; outer block 
   IBRION =     -1    ionic relax: 0-MD 1-quasi-New 2-CG
   NFREE  =      1    steps in history (QN), initial steepest desc. (CG)
   ISIF   =      6    stress and relaxation
   IWAVPR =     10    prediction:  0-non 1-charg 2-wave 3-comb
   ISYM   =      2    0-nonsym 1-usesym 2-fastsym
   LCORR  =      T    Harris-Foulkes like correction to forces

   POTIM  = 0.5000    time-step for ionic-motion
   TEIN   =    0.0    initial temperature
   TEBEG  =    0.0;   TEEND  =   0.0 temperature during run
   SMASS  =  -3.00    Nose mass-parameter (am)
   estimated Nose-frequenzy (Omega)   =  0.10E-29 period in steps =****** mass=  -0.277E-26a.u.
   SCALEE = 1.0000    scale energy and forces
   NPACO  =    256;   APACO  = 16.0  distance and # of slots for P.C.
   PSTRESS=    0.0 pullay stress

  Mass of Ions in am
   POMASS =  54.94 74.92
  Ionic Valenz
   ZVAL   =   7.00  5.00
  Atomic Wigner-Seitz radii
   RWIGS  =  -1.00 -1.00
  virtual crystal weights 
   VCA    =   1.00  1.00
   NELECT =     432.0000    total number of electrons
   NUPDOWN=      -1.0000    fix difference up-down

 DOS related values:
   EMIN   =  10.00;   EMAX   =-10.00  energy-range for DOS
   EFERMI =   0.00
   ISMEAR =     1;   SIGMA  =   0.20  broadening in eV -4-tet -1-fermi 0-gaus

 Electronic relaxation 2 (details)
   IALGO  =     38    algorithm
   LDIAG  =      T    sub-space diagonalisation (order eigenvalues)
   LSUBROT=      F    optimize rotation matrix (better conditioning)
   TURBO    =      0    0=normal 1=particle mesh
   IRESTART =      0    0=no restart 2=restart with 2 vectors
   NREBOOT  =      0    no. of reboots
   NMIN     =      0    reboot dimension
   EREF     =   0.00    reference energy to select bands
   IMIX   =      4    mixing-type and parameters
     AMIX     =   0.40;   BMIX     =  1.00
     AMIX_MAG =   1.60;   BMIX_MAG =  1.00
     AMIN     =   0.10
     WC   =   100.;   INIMIX=   1;  MIXPRE=   1;  MAXMIX= -45

 Intra band minimization:
   WEIMIN = 0.0000     energy-eigenvalue tresh-hold
   EBREAK =  0.83E-10  absolut break condition
   DEPER  =   0.30     relativ break condition  

   TIME   =   0.40     timestep for ELM

  volume/ion in A,a.u.               =      16.03       108.19
  Fermi-wavevector in a.u.,A,eV,Ry     =   1.179759  2.229421 18.937012  1.391831
  Thomas-Fermi vector in A             =   2.316064

 Write flags
   LWAVE  =      F    write WAVECAR
   LCHARG =      F    write CHGCAR
   LVTOT  =      F    write LOCPOT, total local potential
   LVHAR  =      F    write LOCPOT, Hartree potential only
   LELF   =      F    write electronic localiz. function (ELF)
   LORBIT =      0    0 simple, 1 ext, 2 COOP (PROOUT)


 Dipole corrections
   LMONO  =      F    monopole corrections only (constant potential shift)
   LDIPOL =      F    correct potential (dipole corrections)
   IDIPOL =      0    1-x, 2-y, 3-z, 4-all directions 
   EPSILON=  1.0000000 bulk dielectric constant

 Exchange correlation treatment:
   GGA     =    --    GGA type
   LEXCH   =     8    internal setting for exchange type
   VOSKOWN=      0    Vosko Wilk Nusair interpolation
   LHFCALC =     F    Hartree Fock is set to
   LHFONE  =     F    Hartree Fock one center treatment
   AEXX    =    0.0000 exact exchange contribution

 Linear response parameters
   LEPSILON=     F    determine dielectric tensor
   LRPA    =     F    only Hartree local field effects (RPA)
   LNABLA  =     F    use nabla operator in PAW spheres
   LVEL    =     F    velocity operator in full k-point grid
   LINTERFAST=   F  fast interpolation
   KINTER  =     0    interpolate to denser k-point grid
   CSHIFT  =0.1000    complex shift for real part using Kramers Kronig
   OMEGAMAX=  -1.0    maximum frequency
   DEG_THRESHOLD= 0.2000000E-02 threshold for treating states as degnerate
   RTIME   =    0.100 relaxation time in fs

 Orbital magnetization related:
   ORBITALMAG=     F  switch on orbital magnetization
   LCHIMAG   =     F  perturbation theory with respect to B field
   DQ        =  0.001000  dq finite difference perturbation B field



--------------------------------------------------------------------------------------------------------


 Static calculation
 charge density and potential will be updated during run
 spin polarized calculation
 Variant of blocked Davidson
 Davidson routine will perform the subspace rotation
 perform sub-space diagonalisation
    after iterative eigenvector-optimisation
 modified Broyden-mixing scheme, WC =      100.0
 initial mixing is a Kerker type mixing with AMIX =  0.4000 and BMIX =      1.0000
 Hartree-type preconditioning will be used
 using additional bands           84
 real space projection scheme for non local part
 use partial core corrections
 calculate Harris-corrections to forces   (improved forces if not selfconsistent)
 use gradient corrections 
 use of overlap-Matrix (Vanderbilt PP)
 Methfessel and Paxton  Order N= 1 SIGMA  =   0.20


--------------------------------------------------------------------------------------------------------


  energy-cutoff  :      320.00
  volume of cell :     1154.33
      direct lattice vectors                 reciprocal lattice vectors
    11.000217144  0.000000000  0.000000000     0.090907296  0.052485352 -0.000000000
    -5.500108572  9.526467494  0.000000000     0.000000000  0.104970704  0.000000000
     0.000000000  0.000000000 11.015273102     0.000000000 -0.000000000  0.090783042

  length of vectors
    11.000217144 11.000217144 11.015273102     0.104970704  0.104970704  0.090783042



 k-points in units of 2pi/SCALE and weight: Automatic mesh                          
   0.00000000  0.00000000  0.00000000       0.016
   0.02272682  0.01312134  0.00000000       0.062
   0.04545365  0.02624268  0.00000000       0.031
   0.00000000  0.02624268  0.00000000       0.031
   0.02272682  0.03936401  0.00000000       0.062
   0.04545365  0.05248535  0.00000000       0.031
   0.00000000  0.05248535  0.00000000       0.016
   0.00000000  0.00000000  0.02269576       0.031
   0.02272682  0.01312134  0.02269576       0.062
   0.04545365  0.02624268  0.02269576       0.062
  -0.02272682 -0.01312134  0.02269576       0.062
   0.00000000  0.02624268  0.02269576       0.031
   0.02272682  0.03936401  0.02269576       0.062
   0.04545365  0.05248535  0.02269576       0.062
   0.00000000  0.05248535  0.02269576       0.031
   0.02272682  0.06560669  0.02269576       0.062
   0.00000000 -0.02624268  0.02269576       0.031
   0.00000000  0.00000000  0.04539152       0.016
   0.02272682  0.01312134  0.04539152       0.062
   0.04545365  0.02624268  0.04539152       0.031
   0.00000000  0.02624268  0.04539152       0.031
   0.02272682  0.03936401  0.04539152       0.062
   0.04545365  0.05248535  0.04539152       0.031
   0.00000000  0.05248535  0.04539152       0.016

 k-points in reciprocal lattice and weights: Automatic mesh                          
   0.00000000  0.00000000  0.00000000       0.016
   0.25000000  0.00000000  0.00000000       0.062
   0.50000000  0.00000000  0.00000000       0.031
   0.00000000  0.25000000  0.00000000       0.031
   0.25000000  0.25000000  0.00000000       0.062
   0.50000000  0.25000000  0.00000000       0.031
   0.00000000  0.50000000  0.00000000       0.016
   0.00000000  0.00000000  0.25000000       0.031
   0.25000000  0.00000000  0.25000000       0.062
   0.50000000  0.00000000  0.25000000       0.062
  -0.25000000  0.00000000  0.25000000       0.062
   0.00000000  0.25000000  0.25000000       0.031
   0.25000000  0.25000000  0.25000000       0.062
   0.50000000  0.25000000  0.25000000       0.062
   0.00000000  0.50000000  0.25000000       0.031
   0.25000000  0.50000000  0.25000000       0.062
   0.00000000 -0.25000000  0.25000000       0.031
   0.00000000  0.00000000  0.50000000       0.016
   0.25000000  0.00000000  0.50000000       0.062
   0.50000000  0.00000000  0.50000000       0.031
   0.00000000  0.25000000  0.50000000       0.031
   0.25000000  0.25000000  0.50000000       0.062
   0.50000000  0.25000000  0.50000000       0.031
   0.00000000  0.50000000  0.50000000       0.016

 position of ions in fractional coordinates (direct lattice) 
   0.66666667  0.66666667  0.00000000
   0.00000000  0.66666667  0.00000000
   0.33333333  0.66666667  0.00000000
   0.66666667  0.00000000  0.00000000
   0.02400000  0.00000000  0.00000000
   0.33333333  0.00000000  0.00000000
   0.66666667  0.33333333  0.00000000
   0.00000000  0.33333333  0.00000000
   0.33333333  0.33333333  0.00000000
   0.66666667  0.66666667  0.50000000
   0.00000000  0.66666667  0.50000000
   0.33333333  0.66666667  0.50000000
   0.66666667  0.00000000  0.50000000
   0.00000000  0.00000000  0.50000000
   0.33333333  0.00000000  0.50000000
   0.66666667  0.33333333  0.50000000
   0.00000000  0.33333333  0.50000000
   0.33333333  0.33333333  0.50000000
   0.66666667  0.66666667  0.75000000
   0.00000000  0.66666667  0.75000000
   0.33333333  0.66666667  0.75000000
   0.66666667  0.00000000  0.75000000
   0.00000000  0.00000000  0.75000000
   0.33333333  0.00000000  0.75000000
   0.66666667  0.33333333  0.75000000
   0.00000000  0.33333333  0.75000000
   0.33333333  0.33333333  0.75000000
   0.66666667  0.66666667  0.25000000
   0.00000000  0.66666667  0.25000000
   0.33333333  0.66666667  0.25000000
   0.66666667  0.00000000  0.25000000
   0.00000000  0.00000000  0.25000000
   0.33333333  0.00000000  0.25000000
   0.66666667  0.33333333  0.25000000
   0.00000000  0.33333333  0.25000000
   0.33333333  0.33333333  0.25000000
   0.77777778  0.55555556  0.62500000
   0.11111111  0.55555556  0.62500000
   0.44444444  0.55555556  0.62500000
   0.77777778  0.88888889  0.62500000
   0.11111111  0.88888889  0.62500000
   0.44444444  0.88888889  0.62500000
   0.77777778  0.22222222  0.62500000
   0.11111111  0.22222222  0.62500000
   0.44444444  0.22222222  0.62500000
   0.77777778  0.55555556  0.12500000
   0.11111111  0.55555556  0.12500000
   0.44444444  0.55555556  0.12500000
   0.77777778  0.88888889  0.12500000
   0.11111111  0.88888889  0.12500000
   0.44444444  0.88888889  0.12500000
   0.77777778  0.22222222  0.12500000
   0.11111111  0.22222222  0.12500000
   0.44444444  0.22222222  0.12500000
   0.55555556  0.77777778  0.87500000
   0.88888889  0.77777778  0.87500000
   0.22222222  0.77777778  0.87500000
   0.55555556  0.11111111  0.87500000
   0.88888889  0.11111111  0.87500000
   0.22222222  0.11111111  0.87500000
   0.55555556  0.44444444  0.87500000
   0.88888889  0.44444444  0.87500000
   0.22222222  0.44444444  0.87500000
   0.55555556  0.77777778  0.37500000
   0.88888889  0.77777778  0.37500000
   0.22222222  0.77777778  0.37500000
   0.55555556  0.11111111  0.37500000
   0.88888889  0.11111111  0.37500000
   0.22222222  0.11111111  0.37500000
   0.55555556  0.44444444  0.37500000
   0.88888889  0.44444444  0.37500000
   0.22222222  0.44444444  0.37500000

 position of ions in cartesian coordinates  (Angst):
   3.66673905  6.35097833  0.00000000
  -3.66673905  6.35097833  0.00000000
  -0.00000000  6.35097833  0.00000000
   7.33347810  0.00000000  0.00000000
   0.26400521  0.00000000  0.00000000
   3.66673905  0.00000000  0.00000000
   5.50010857  3.17548916  0.00000000
  -1.83336952  3.17548916  0.00000000
   1.83336952  3.17548916  0.00000000
   3.66673905  6.35097833  5.50763655
  -3.66673905  6.35097833  5.50763655
  -0.00000000  6.35097833  5.50763655
   7.33347810  0.00000000  5.50763655
   0.00000000  0.00000000  5.50763655
   3.66673905  0.00000000  5.50763655
   5.50010857  3.17548916  5.50763655
  -1.83336952  3.17548916  5.50763655
   1.83336952  3.17548916  5.50763655
   3.66673905  6.35097833  8.26145483
  -3.66673905  6.35097833  8.26145483
  -0.00000000  6.35097833  8.26145483
   7.33347810  0.00000000  8.26145483
   0.00000000  0.00000000  8.26145483
   3.66673905  0.00000000  8.26145483
   5.50010857  3.17548916  8.26145483
  -1.83336952  3.17548916  8.26145483
   1.83336952  3.17548916  8.26145483
   3.66673905  6.35097833  2.75381828
  -3.66673905  6.35097833  2.75381828
  -0.00000000  6.35097833  2.75381828
   7.33347810  0.00000000  2.75381828
   0.00000000  0.00000000  2.75381828
   3.66673905  0.00000000  2.75381828
   5.50010857  3.17548916  2.75381828
  -1.83336952  3.17548916  2.75381828
   1.83336952  3.17548916  2.75381828
   5.50010857  5.29248194  6.88454569
  -1.83336952  5.29248194  6.88454569
   1.83336952  5.29248194  6.88454569
   3.66673905  8.46797111  6.88454569
  -3.66673905  8.46797111  6.88454569
  -0.00000000  8.46797111  6.88454569
   7.33347810  2.11699278  6.88454569
  -0.00000000  2.11699278  6.88454569
   3.66673905  2.11699278  6.88454569
   5.50010857  5.29248194  1.37690914
  -1.83336952  5.29248194  1.37690914
   1.83336952  5.29248194  1.37690914
   3.66673905  8.46797111  1.37690914
  -3.66673905  8.46797111  1.37690914
  -0.00000000  8.46797111  1.37690914
   7.33347810  2.11699278  1.37690914
  -0.00000000  2.11699278  1.37690914
   3.66673905  2.11699278  1.37690914
   1.83336952  7.40947472  9.63836396
   5.50010857  7.40947472  9.63836396
  -1.83336952  7.40947472  9.63836396
   5.50010857  1.05849639  9.63836396
   9.16684762  1.05849639  9.63836396
   1.83336952  1.05849639  9.63836396
   3.66673905  4.23398555  9.63836396
   7.33347810  4.23398555  9.63836396
  -0.00000000  4.23398555  9.63836396
   1.83336952  7.40947472  4.13072741
   5.50010857  7.40947472  4.13072741
  -1.83336952  7.40947472  4.13072741
   5.50010857  1.05849639  4.13072741
   9.16684762  1.05849639  4.13072741
   1.83336952  1.05849639  4.13072741
   3.66673905  4.23398555  4.13072741
   7.33347810  4.23398555  4.13072741
  -0.00000000  4.23398555  4.13072741



--------------------------------------------------------------------------------------------------------


 k-point  1 :   0.0000 0.0000 0.0000  plane waves:   14931
 k-point  2 :   0.2500 0.0000 0.0000  plane waves:   14982
 k-point  3 :   0.5000 0.0000 0.0000  plane waves:   15008
 k-point  4 :   0.0000 0.2500 0.0000  plane waves:   14982
 k-point  5 :   0.2500 0.2500 0.0000  plane waves:   14994
 k-point  6 :   0.5000 0.2500 0.0000  plane waves:   14994
 k-point  7 :   0.0000 0.5000 0.0000  plane waves:   15008
 k-point  8 :   0.0000 0.0000 0.2500  plane waves:   14990
 k-point  9 :   0.2500 0.0000 0.2500  plane waves:   15013
 k-point 10 :   0.5000 0.0000 0.2500  plane waves:   15002
 k-point 11 :  -0.2500 0.0000 0.2500  plane waves:   15013
 k-point 12 :   0.0000 0.2500 0.2500  plane waves:   15013
 k-point 13 :   0.2500 0.2500 0.2500  plane waves:   15003
 k-point 14 :   0.5000 0.2500 0.2500  plane waves:   15003
 k-point 15 :   0.0000 0.5000 0.2500  plane waves:   15002
 k-point 16 :   0.2500 0.5000 0.2500  plane waves:   15003
 k-point 17 :   0.0000-0.2500 0.2500  plane waves:   15013
 k-point 18 :   0.0000 0.0000 0.5000  plane waves:   14984
 k-point 19 :   0.2500 0.0000 0.5000  plane waves:   15008
 k-point 20 :   0.5000 0.0000 0.5000  plane waves:   15044
 k-point 21 :   0.0000 0.2500 0.5000  plane waves:   15008
 k-point 22 :   0.2500 0.2500 0.5000  plane waves:   15006
 k-point 23 :   0.5000 0.2500 0.5000  plane waves:   15006
 k-point 24 :   0.0000 0.5000 0.5000  plane waves:   15044

 maximum and minimum number of plane-waves per node :      3774     3707

 maximum number of plane-waves:     15044
 maximum index in each direction: 
   IXMAX=   16   IYMAX=   16   IZMAX=   16
   IXMIN=  -16   IYMIN=  -16   IZMIN=  -16

 NGX is ok and might be reduce to  66
 NGY is ok and might be reduce to  66
 NGZ is ok and might be reduce to  66

 real space projection operators:
  total allocation   :      41364.84 KBytes
  max/ min on nodes  :      10758.03       9935.47


 parallel 3D FFT for wavefunctions:
    minimum data exchange during FFTs selected (reduces bandwidth)
 parallel 3D FFT for charge:
    minimum data exchange during FFTs selected (reduces bandwidth)


 total amount of memory used by VASP on root node   334143. kBytes
========================================================================

   base      :      30000. kBytes
   nonlr-proj:      20524. kBytes
   fftplans  :      28296. kBytes
   grid      :      21369. kBytes
   one-center:        559. kBytes
   wavefun   :     233395. kBytes

     INWAV:  cpu time    0.0000: real time    0.0003
 Broyden mixing: mesh for mixing (old mesh)
   NGX = 33   NGY = 33   NGZ = 33
  (NGX  =140   NGY  =140   NGZ  =140)
  gives a total of  35937 points

 initial charge density was supplied:
 charge density of overlapping atoms calculated
 number of electron     432.0000000 magnetization      36.0000000
 keeping initial charge density in first step


--------------------------------------------------------------------------------------------------------


 Maximum index for non-local projection operator         1589
 Maximum index for augmentation-charges         6365 (set IRDMAX)


--------------------------------------------------------------------------------------------------------


 First call to EWALD:  gamma=   0.169
 Maximum number of real-space cells 3x 3x 3
 Maximum number of reciprocal cells 3x 3x 3

 FEWALD executed in parallel
    FEWALD:  cpu time    0.0320: real time    0.0325


----------------------------------------- Iteration    1(   1)  ---------------------------------------


    POTLOK:  cpu time    1.5040: real time    1.5135
    SETDIJ:  cpu time    2.0320: real time    2.0425
     EDDAV:  cpu time  794.7640: real time  801.0894
       DOS:  cpu time    0.0480: real time    0.0523
    --------------------------------------------
      LOOP:  cpu time  798.3600: real time  804.7082

 eigenvalue-minimisations  : 29112
 total energy-change (2. order) : 0.3245193E+04  (-0.1144855E+05)
 number of electron     432.0000000 magnetization      36.0000000
 augmentation part      432.0000000 magnetization      36.0000000

 Free energy of the ion-electron system (eV)
  ---------------------------------------------------
  alpha Z        PSCENC =      1700.89082154
  Ewald energy   TEWEN  =    -21118.63501810
  -Hartree energ DENC   =     -3905.84892264
  -exchange      EXHF   =         0.00000000
  -V(xc)+E(xc)   XCENC  =      -848.07784518
  PAW double counting   =     14295.91323732   -12980.49464661
  entropy T*S    EENTRO =        -0.00295257
  eigenvalues    EBANDS =      4972.23886012
  atomic energy  EATOM  =     21129.20924906
  Solvation  Ediel_sol  =         0.00000000
  ---------------------------------------------------
  free energy    TOTEN  =      3245.19278293 eV

  energy without entropy =     3245.19573550  energy(sigma->0) =     3245.19376712


--------------------------------------------------------------------------------------------------------




----------------------------------------- Iteration    1(   2)  ---------------------------------------


     EDDAV:  cpu time  837.0560: real time  843.1426
       DOS:  cpu time    0.0600: real time    0.0617
    --------------------------------------------
      LOOP:  cpu time  837.1720: real time  843.2728

 eigenvalue-minimisations  : 28800
 total energy-change (2. order) :-0.3329910E+04  (-0.3198446E+04)
 number of electron     432.0000000 magnetization      36.0000000
 augmentation part      432.0000000 magnetization      36.0000000

 Free energy of the ion-electron system (eV)
  ---------------------------------------------------
  alpha Z        PSCENC =      1700.89082154
  Ewald energy   TEWEN  =    -21118.63501810
  -Hartree energ DENC   =     -3905.84892264
  -exchange      EXHF   =         0.00000000
  -V(xc)+E(xc)   XCENC  =      -848.07784518
  PAW double counting   =     14295.91323732   -12980.49464661
  entropy T*S    EENTRO =        -0.00859389
  eigenvalues    EBANDS =      1642.33424694
  atomic energy  EATOM  =     21129.20924906
  Solvation  Ediel_sol  =         0.00000000
  ---------------------------------------------------
  free energy    TOTEN  =       -84.71747157 eV

  energy without entropy =      -84.70887768  energy(sigma->0) =      -84.71460694


--------------------------------------------------------------------------------------------------------




----------------------------------------- Iteration    1(   3)  ---------------------------------------


     EDDAV:  cpu time 1141.9800: real time 1150.3210
       DOS:  cpu time    0.0680: real time    0.0711
    --------------------------------------------
      LOOP:  cpu time 1142.1280: real time 1150.4852

 eigenvalue-minimisations  : 42480
 total energy-change (2. order) :-0.4175097E+03  (-0.3742577E+03)
 number of electron     432.0000000 magnetization      36.0000000
 augmentation part      432.0000000 magnetization      36.0000000

 Free energy of the ion-electron system (eV)
  ---------------------------------------------------
  alpha Z        PSCENC =      1700.89082154
  Ewald energy   TEWEN  =    -21118.63501810
  -Hartree energ DENC   =     -3905.84892264
  -exchange      EXHF   =         0.00000000
  -V(xc)+E(xc)   XCENC  =      -848.07784518
  PAW double counting   =     14295.91323732   -12980.49464661
  entropy T*S    EENTRO =        -0.06958146
  eigenvalues    EBANDS =      1224.88550840
  atomic energy  EATOM  =     21129.20924906
  Solvation  Ediel_sol  =         0.00000000
  ---------------------------------------------------
  free energy    TOTEN  =      -502.22719768 eV

  energy without entropy =     -502.15761621  energy(sigma->0) =     -502.20400386


--------------------------------------------------------------------------------------------------------




----------------------------------------- Iteration    1(   4)  ---------------------------------------


     EDDAV:  cpu time 1233.7840: real time 1242.7597
       DOS:  cpu time    0.0760: real time    0.0752
    --------------------------------------------
      LOOP:  cpu time 1233.9360: real time 1242.9282

 eigenvalue-minimisations  : 46400
 total energy-change (2. order) :-0.4171941E+02  (-0.3695454E+02)
 number of electron     432.0000000 magnetization      36.0000000
 augmentation part      432.0000000 magnetization      36.0000000

 Free energy of the ion-electron system (eV)
  ---------------------------------------------------
  alpha Z        PSCENC =      1700.89082154
  Ewald energy   TEWEN  =    -21118.63501810
  -Hartree energ DENC   =     -3905.84892264
  -exchange      EXHF   =         0.00000000
  -V(xc)+E(xc)   XCENC  =      -848.07784518
  PAW double counting   =     14295.91323732   -12980.49464661
  entropy T*S    EENTRO =        -0.05618572
  eigenvalues    EBANDS =      1183.15270526
  atomic energy  EATOM  =     21129.20924906
  Solvation  Ediel_sol  =         0.00000000
  ---------------------------------------------------
  free energy    TOTEN  =      -543.94660507 eV

  energy without entropy =     -543.89041936  energy(sigma->0) =     -543.92787650


--------------------------------------------------------------------------------------------------------




----------------------------------------- Iteration    1(   5)  ---------------------------------------


     EDDAV:  cpu time 1288.7120: real time 1297.9784
       DOS:  cpu time    0.0720: real time    0.0708
    CHARGE:  cpu time   50.8360: real time   51.1966
    MIXING:  cpu time    0.0880: real time    0.0859
    --------------------------------------------
      LOOP:  cpu time 1339.7840: real time 1349.4567

 eigenvalue-minimisations  : 49000
 total energy-change (2. order) :-0.2880431E+01  (-0.2719532E+01)
 number of electron     432.0000001 magnetization      39.7849717
 augmentation part       60.2237637 magnetization      21.5504807

 Broyden mixing:
  rms(total) = 0.61268E+01    rms(broyden)= 0.61251E+01
  rms(prec ) = 0.79557E+01
  weight for this iteration     100.00

 Free energy of the ion-electron system (eV)
  ---------------------------------------------------
  alpha Z        PSCENC =      1700.89082154
  Ewald energy   TEWEN  =    -21118.63501810
  -Hartree energ DENC   =     -3905.84892264
  -exchange      EXHF   =         0.00000000
  -V(xc)+E(xc)   XCENC  =      -848.07784518
  PAW double counting   =     14295.91323732   -12980.49464661
  entropy T*S    EENTRO =        -0.05101640
  eigenvalues    EBANDS =      1180.26710491
  atomic energy  EATOM  =     21129.20924906
  Solvation  Ediel_sol  =         0.00000000
  ---------------------------------------------------
  free energy    TOTEN  =      -546.82703611 eV

  energy without entropy =     -546.77601971  energy(sigma->0) =     -546.81003064


--------------------------------------------------------------------------------------------------------




----------------------------------------- Iteration    1(   6)  ---------------------------------------


    POTLOK:  cpu time    1.6880: real time    1.7026
    SETDIJ:  cpu time    2.1480: real time    2.1612
     EDDAV:  cpu time 1165.2240: real time 1174.0798
       DOS:  cpu time    0.0720: real time    0.0760
    CHARGE:  cpu time   50.9480: real time   51.3040
    MIXING:  cpu time    0.0840: real time    0.0831
    --------------------------------------------
      LOOP:  cpu time 1220.1680: real time 1229.4225

 eigenvalue-minimisations  : 43660
 total energy-change (2. order) :-0.6683968E+02  (-0.1400244E+03)
 number of electron     432.0000004 magnetization      39.5164248
 augmentation part      144.4399999 magnetization      33.8086550

 Broyden mixing:
  rms(total) = 0.94434E+01    rms(broyden)= 0.94421E+01
  rms(prec ) = 0.12759E+02
  weight for this iteration     100.00

 eigenvalues of (default mixing * dielectric matrix)
  average eigenvalue GAMMA=   0.4078
  0.4078

 Free energy of the ion-electron system (eV)
  ---------------------------------------------------
  alpha Z        PSCENC =      1700.89082154
  Ewald energy   TEWEN  =    -21118.63501810
  -Hartree energ DENC   =     -3184.30279982
  -exchange      EXHF   =         0.00000000
  -V(xc)+E(xc)   XCENC  =      -859.97565512
  PAW double counting   =     13316.11219924   -11919.82085594
  entropy T*S    EENTRO =        -0.22109440
  eigenvalues    EBANDS =       323.07644050
  atomic energy  EATOM  =     21129.20924906
  Solvation  Ediel_sol  =         0.00000000
  ---------------------------------------------------
  free energy    TOTEN  =      -613.66671305 eV

  energy without entropy =     -613.44561864  energy(sigma->0) =     -613.59301491


--------------------------------------------------------------------------------------------------------




----------------------------------------- Iteration    1(   7)  ---------------------------------------


    POTLOK:  cpu time    1.6880: real time    1.6978
    SETDIJ:  cpu time    2.1760: real time    2.1888
     EDDAV:  cpu time 1255.5640: real time 1265.0826
       DOS:  cpu time    0.0720: real time    0.0738
    CHARGE:  cpu time   51.4360: real time   51.8285
    MIXING:  cpu time    0.1040: real time    0.1044
    --------------------------------------------
      LOOP:  cpu time 1311.0400: real time 1320.9990

 eigenvalue-minimisations  : 47640
 total energy-change (2. order) : 0.1072641E+03  (-0.6144173E+02)
 number of electron     432.0000002 magnetization      40.6594259
 augmentation part       87.2825219 magnetization      21.0669692

 Broyden mixing:
  rms(total) = 0.44824E+01    rms(broyden)= 0.44808E+01
  rms(prec ) = 0.61735E+01
  weight for this iteration     100.00

 eigenvalues of (default mixing * dielectric matrix)
  average eigenvalue GAMMA=   0.2267
  0.4161  0.0373

 Free energy of the ion-electron system (eV)
  ---------------------------------------------------
  alpha Z        PSCENC =      1700.89082154
  Ewald energy   TEWEN  =    -21118.63501810
  -Hartree energ DENC   =     -3615.23234521
  -exchange      EXHF   =         0.00000000
  -V(xc)+E(xc)   XCENC  =      -846.11605291
  PAW double counting   =     14390.23171708   -13069.61690318
  entropy T*S    EENTRO =         0.02921174
  eigenvalues    EBANDS =       922.83669520
  atomic energy  EATOM  =     21129.20924906
  Solvation  Ediel_sol  =         0.00000000
  ---------------------------------------------------
  free energy    TOTEN  =      -506.40262478 eV

  energy without entropy =     -506.43183652  energy(sigma->0) =     -506.41236203


--------------------------------------------------------------------------------------------------------




----------------------------------------- Iteration    1(   8)  ---------------------------------------


    POTLOK:  cpu time    1.6880: real time    1.7019
    SETDIJ:  cpu time    2.0840: real time    2.0965
     EDDAV:  cpu time 1201.3320: real time 1210.5729
       DOS:  cpu time    0.0720: real time    0.0743
    CHARGE:  cpu time   49.5720: real time   49.9170
    MIXING:  cpu time    0.0440: real time    0.0436
    --------------------------------------------
      LOOP:  cpu time 1254.8000: real time 1264.4141

 eigenvalue-minimisations  : 45040
 total energy-change (2. order) : 0.4399011E+01  (-0.6826355E+01)
 number of electron     432.0000002 magnetization      40.8097244
 augmentation part       84.7696928 magnetization      19.7738015

 Broyden mixing:
  rms(total) = 0.30088E+01    rms(broyden)= 0.30085E+01
  rms(prec ) = 0.36198E+01
  weight for this iteration     100.00

 eigenvalues of (default mixing * dielectric matrix)
  average eigenvalue GAMMA=   0.3298
  0.4599  0.3894  0.1402

 Free energy of the ion-electron system (eV)
  ---------------------------------------------------
  alpha Z        PSCENC =      1700.89082154
  Ewald energy   TEWEN  =    -21118.63501810
  -Hartree energ DENC   =     -3615.65674313
  -exchange      EXHF   =         0.00000000
  -V(xc)+E(xc)   XCENC  =      -844.37027600
  PAW double counting   =     14432.63191403   -13114.92107763
  entropy T*S    EENTRO =         0.04087635
  eigenvalues    EBANDS =       928.80663972
  atomic energy  EATOM  =     21129.20924906
  Solvation  Ediel_sol  =         0.00000000
  ---------------------------------------------------
  free energy    TOTEN  =      -502.00361418 eV

  energy without entropy =     -502.04449053  energy(sigma->0) =     -502.01723963


--------------------------------------------------------------------------------------------------------




----------------------------------------- Iteration    1(   9)  ---------------------------------------


    POTLOK:  cpu time    1.6840: real time    1.6945
    SETDIJ:  cpu time    2.1600: real time    2.1714
     EDDAV:  cpu time 1191.3120: real time 1199.7802
       DOS:  cpu time    0.0680: real time    0.0716
    CHARGE:  cpu time   51.5120: real time   51.8695
    MIXING:  cpu time    0.0560: real time    0.0562
    --------------------------------------------
      LOOP:  cpu time 1246.7960: real time 1255.6685

 eigenvalue-minimisations  : 44496
 total energy-change (2. order) :-0.2513408E+00  (-0.4560725E+00)
 number of electron     432.0000002 magnetization      39.4969630
 augmentation part       84.2096867 magnetization      18.3668929

 Broyden mixing:
  rms(total) = 0.29100E+01    rms(broyden)= 0.29100E+01
  rms(prec ) = 0.34547E+01
  weight for this iteration     100.00

 eigenvalues of (default mixing * dielectric matrix)
  average eigenvalue GAMMA=   0.3816
  0.9504  0.3689  0.1104  0.0966

 Free energy of the ion-electron system (eV)
  ---------------------------------------------------
  alpha Z        PSCENC =      1700.89082154
  Ewald energy   TEWEN  =    -21118.63501810
  -Hartree energ DENC   =     -3615.03702138
  -exchange      EXHF   =         0.00000000
  -V(xc)+E(xc)   XCENC  =      -844.17801691
  PAW double counting   =     14435.47013769   -13117.82855054
  entropy T*S    EENTRO =         0.04415731
  eigenvalues    EBANDS =       927.80928635
  atomic energy  EATOM  =     21129.20924906
  Solvation  Ediel_sol  =         0.00000000
  ---------------------------------------------------
  free energy    TOTEN  =      -502.25495499 eV

  energy without entropy =     -502.29911230  energy(sigma->0) =     -502.26967409


--------------------------------------------------------------------------------------------------------




----------------------------------------- Iteration    1(  10)  ---------------------------------------


    POTLOK:  cpu time    1.7000: real time    1.7174
    SETDIJ:  cpu time    2.1000: real time    2.1155
     EDDAV:  cpu time 1276.5800: real time 1286.8862
       DOS:  cpu time    0.0720: real time    0.0737
    CHARGE:  cpu time   48.8120: real time   49.2124
    MIXING:  cpu time    0.1000: real time    0.0985
    --------------------------------------------
      LOOP:  cpu time 1329.3680: real time 1340.1120

 eigenvalue-minimisations  : 48368
 total energy-change (2. order) : 0.5399613E+00  (-0.5864728E-01)
 number of electron     432.0000002 magnetization      45.1435456
 augmentation part       83.4104586 magnetization      24.2279982

 Broyden mixing:
  rms(total) = 0.28840E+01    rms(broyden)= 0.28840E+01
  rms(prec ) = 0.33441E+01
  weight for this iteration     100.00

 eigenvalues of (default mixing * dielectric matrix)
  average eigenvalue GAMMA=   0.4878
  0.9310  0.9310  0.3446  0.1160  0.1160

 Free energy of the ion-electron system (eV)
  ---------------------------------------------------
  alpha Z        PSCENC =      1700.89082154
  Ewald energy   TEWEN  =    -21118.63501810
  -Hartree energ DENC   =     -3623.19773157
  -exchange      EXHF   =         0.00000000
  -V(xc)+E(xc)   XCENC  =      -845.71223252
  PAW double counting   =     14413.20330904   -13095.29953455
  entropy T*S    EENTRO =         0.02315814
  eigenvalues    EBANDS =       937.80298527
  atomic energy  EATOM  =     21129.20924906
  Solvation  Ediel_sol  =         0.00000000
  ---------------------------------------------------
  free energy    TOTEN  =      -501.71499371 eV

  energy without entropy =     -501.73815184  energy(sigma->0) =     -501.72271308


--------------------------------------------------------------------------------------------------------




----------------------------------------- Iteration    1(  11)  ---------------------------------------


    POTLOK:  cpu time    1.6480: real time    1.6620
    SETDIJ:  cpu time    2.2560: real time    2.2746
     EDDAV:  cpu time 1336.4680: real time 1346.3231
       DOS:  cpu time    0.0760: real time    0.0742
    CHARGE:  cpu time   49.8560: real time   50.2093
    MIXING:  cpu time    0.1080: real time    0.1101
    --------------------------------------------
      LOOP:  cpu time 1390.4160: real time 1400.6606

 eigenvalue-minimisations  : 50672
 total energy-change (2. order) :-0.5601481E+01  (-0.9277163E+00)
 number of electron     432.0000002 magnetization      50.9952980
 augmentation part       85.9741196 magnetization      30.5960984

 Broyden mixing:
  rms(total) = 0.40190E+01    rms(broyden)= 0.40186E+01
  rms(prec ) = 0.55706E+01
  weight for this iteration     100.00

 eigenvalues of (default mixing * dielectric matrix)
  average eigenvalue GAMMA=   0.4796
  1.0995  1.0995  0.3436  0.1184  0.1184  0.0980

 Free energy of the ion-electron system (eV)
  ---------------------------------------------------
  alpha Z        PSCENC =      1700.89082154
  Ewald energy   TEWEN  =    -21118.63501810
  -Hartree energ DENC   =     -3607.30851620
  -exchange      EXHF   =         0.00000000
  -V(xc)+E(xc)   XCENC  =      -842.45563679
  PAW double counting   =     14464.33523853   -13142.96321865
  entropy T*S    EENTRO =         0.05131214
  eigenvalues    EBANDS =       909.55929426
  atomic energy  EATOM  =     21129.20924906
  Solvation  Ediel_sol  =         0.00000000
  ---------------------------------------------------
  free energy    TOTEN  =      -507.31647423 eV

  energy without entropy =     -507.36778636  energy(sigma->0) =     -507.33357827


--------------------------------------------------------------------------------------------------------




----------------------------------------- Iteration    1(  12)  ---------------------------------------


    POTLOK:  cpu time    1.6800: real time    1.6967
    SETDIJ:  cpu time    2.1400: real time    2.1559
     EDDAV:  cpu time 1350.5800: real time 1360.5885
       DOS:  cpu time    0.0720: real time    0.0716
    CHARGE:  cpu time   45.1440: real time   45.4688
    MIXING:  cpu time    0.1320: real time    0.1339
    --------------------------------------------
      LOOP:  cpu time 1399.7520: real time 1410.1249

 eigenvalue-minimisations  : 51968
 total energy-change (2. order) : 0.3268134E+01  (-0.1290447E+01)
 number of electron     432.0000002 magnetization      63.0793439
 augmentation part       88.0907759 magnetization      40.8682098

 Broyden mixing:
  rms(total) = 0.26558E+01    rms(broyden)= 0.26554E+01
  rms(prec ) = 0.31642E+01
  weight for this iteration     100.00

 eigenvalues of (default mixing * dielectric matrix)
  average eigenvalue GAMMA=   0.6337
  1.6961  1.6961  0.3810  0.3217  0.1193  0.1193  0.1022

 Free energy of the ion-electron system (eV)
  ---------------------------------------------------
  alpha Z        PSCENC =      1700.89082154
  Ewald energy   TEWEN  =    -21118.63501810
  -Hartree energ DENC   =     -3593.91305318
  -exchange      EXHF   =         0.00000000
  -V(xc)+E(xc)   XCENC  =      -838.50916331
  PAW double counting   =     14522.35182291   -13198.24539950
  entropy T*S    EENTRO =         0.07431923
  eigenvalues    EBANDS =       892.72808093
  atomic energy  EATOM  =     21129.20924906
  Solvation  Ediel_sol  =         0.00000000
  ---------------------------------------------------
  free energy    TOTEN  =      -504.04834044 eV

  energy without entropy =     -504.12265967  energy(sigma->0) =     -504.07311352


--------------------------------------------------------------------------------------------------------




----------------------------------------- Iteration    1(  13)  ---------------------------------------


    POTLOK:  cpu time    1.6480: real time    1.6641
    SETDIJ:  cpu time    2.2720: real time    2.2855
     EDDAV:  cpu time 1272.8600: real time 1282.1516
       DOS:  cpu time    0.0720: real time    0.0726
    CHARGE:  cpu time   49.1480: real time   49.4976
    MIXING:  cpu time    0.0960: real time    0.0969
    --------------------------------------------
      LOOP:  cpu time 1326.1040: real time 1335.7775

 eigenvalue-minimisations  : 47792
 total energy-change (2. order) :-0.4889600E+01  (-0.1111755E+01)
 number of electron     432.0000002 magnetization      73.5879224
 augmentation part       90.8327235 magnetization      50.5063878

 Broyden mixing:
  rms(total) = 0.23319E+01    rms(broyden)= 0.23315E+01
  rms(prec ) = 0.31567E+01
  weight for this iteration     100.00

 eigenvalues of (default mixing * dielectric matrix)
  average eigenvalue GAMMA=   0.6287
  1.9008  1.9008  0.4220  0.3332  0.1175  0.1175  0.1397  0.0979

 Free energy of the ion-electron system (eV)
  ---------------------------------------------------
  alpha Z        PSCENC =      1700.89082154
  Ewald energy   TEWEN  =    -21118.63501810
  -Hartree energ DENC   =     -3576.78295004
  -exchange      EXHF   =         0.00000000
  -V(xc)+E(xc)   XCENC  =      -825.96982439
  PAW double counting   =     14652.49926235   -13328.51321878
  entropy T*S    EENTRO =         0.05271512
  eigenvalues    EBANDS =       858.31102249
  atomic energy  EATOM  =     21129.20924906
  Solvation  Ediel_sol  =         0.00000000
  ---------------------------------------------------
  free energy    TOTEN  =      -508.93794075 eV

  energy without entropy =     -508.99065587  energy(sigma->0) =     -508.95551246


--------------------------------------------------------------------------------------------------------




----------------------------------------- Iteration    1(  14)  ---------------------------------------


    POTLOK:  cpu time    1.6160: real time    1.6271
    SETDIJ:  cpu time    2.2520: real time    2.2694
     EDDAV:  cpu time 1268.1480: real time 1277.4165
       DOS:  cpu time    0.0680: real time    0.0726
    CHARGE:  cpu time   44.9320: real time   45.2447
    MIXING:  cpu time    0.0840: real time    0.0830
    --------------------------------------------
      LOOP:  cpu time 1317.1080: real time 1326.7212

 eigenvalue-minimisations  : 47728
 total energy-change (2. order) :-0.1889426E+01  (-0.9481511E+00)
 number of electron     432.0000002 magnetization      73.8547038
 augmentation part       92.8249998 magnetization      49.7516525

 Broyden mixing:
  rms(total) = 0.14071E+01    rms(broyden)= 0.14063E+01
  rms(prec ) = 0.17647E+01
  weight for this iteration     100.00

 eigenvalues of (default mixing * dielectric matrix)
  average eigenvalue GAMMA=   0.5868
  1.9590  1.9590  0.4134  0.3331  0.1722  0.1188  0.1188  0.1035  0.1035

 Free energy of the ion-electron system (eV)
  ---------------------------------------------------
  alpha Z        PSCENC =      1700.89082154
  Ewald energy   TEWEN  =    -21118.63501810
  -Hartree energ DENC   =     -3561.14823367
  -exchange      EXHF   =         0.00000000
  -V(xc)+E(xc)   XCENC  =      -811.97581623
  PAW double counting   =     14769.35656433   -13447.69985361
  entropy T*S    EENTRO =         0.03557002
  eigenvalues    EBANDS =       829.13934948
  atomic energy  EATOM  =     21129.20924906
  Solvation  Ediel_sol  =         0.00000000
  ---------------------------------------------------
  free energy    TOTEN  =      -510.82736720 eV

  energy without entropy =     -510.86293722  energy(sigma->0) =     -510.83922387


--------------------------------------------------------------------------------------------------------




----------------------------------------- Iteration    1(  15)  ---------------------------------------


    POTLOK:  cpu time    1.6200: real time    1.6328
    SETDIJ:  cpu time    2.2200: real time    2.2330
     EDDAV:  cpu time 1071.3080: real time 1079.2089
       DOS:  cpu time    0.0720: real time    0.0764
    CHARGE:  cpu time   49.2960: real time   49.6481
    MIXING:  cpu time    0.0920: real time    0.0937
    --------------------------------------------
      LOOP:  cpu time 1124.6160: real time 1132.9023

 eigenvalue-minimisations  : 38992
 total energy-change (2. order) :-0.7170247E-01  (-0.1220812E+00)
 number of electron     432.0000002 magnetization      76.9004856
 augmentation part       92.9343898 magnetization      52.9496843

 Broyden mixing:
  rms(total) = 0.14535E+01    rms(broyden)= 0.14534E+01
  rms(prec ) = 0.17864E+01
  weight for this iteration     100.00

 eigenvalues of (default mixing * dielectric matrix)
  average eigenvalue GAMMA=   0.5813
  1.9995  1.9995  0.3201  0.3201  0.3818  0.3264  0.1188  0.1188  0.1278  0.1002

 Free energy of the ion-electron system (eV)
  ---------------------------------------------------
  alpha Z        PSCENC =      1700.89082154
  Ewald energy   TEWEN  =    -21118.63501810
  -Hartree energ DENC   =     -3560.65974244
  -exchange      EXHF   =         0.00000000
  -V(xc)+E(xc)   XCENC  =      -811.57057523
  PAW double counting   =     14772.67875233   -13451.60667855
  entropy T*S    EENTRO =         0.03292249
  eigenvalues    EBANDS =       828.76119923
  atomic energy  EATOM  =     21129.20924906
  Solvation  Ediel_sol  =         0.00000000
  ---------------------------------------------------
  free energy    TOTEN  =      -510.89906967 eV

  energy without entropy =     -510.93199216  energy(sigma->0) =     -510.91004383


--------------------------------------------------------------------------------------------------------




----------------------------------------- Iteration    1(  16)  ---------------------------------------


    POTLOK:  cpu time    1.6840: real time    1.6929
    SETDIJ:  cpu time    2.2480: real time    2.2616
     EDDAV:  cpu time 1353.3800: real time 1363.2444
       DOS:  cpu time    0.0720: real time    0.0706
    CHARGE:  cpu time   49.2360: real time   49.5889
    MIXING:  cpu time    0.0800: real time    0.0830
    --------------------------------------------
      LOOP:  cpu time 1406.7000: real time 1416.9509

 eigenvalue-minimisations  : 51552
 total energy-change (2. order) :-0.2767315E+00  (-0.7898681E-01)
 number of electron     432.0000002 magnetization      82.9883503
 augmentation part       92.9373258 magnetization      58.7086702

 Broyden mixing:
  rms(total) = 0.14793E+01    rms(broyden)= 0.14793E+01
  rms(prec ) = 0.19423E+01
  weight for this iteration     100.00

 eigenvalues of (default mixing * dielectric matrix)
  average eigenvalue GAMMA=   0.6088
  2.0139  2.0139  0.6365  0.6365  0.4189  0.3319  0.1804  0.1190  0.1190  0.1260
  0.1003

 Free energy of the ion-electron system (eV)
  ---------------------------------------------------
  alpha Z        PSCENC =      1700.89082154
  Ewald energy   TEWEN  =    -21118.63501810
  -Hartree energ DENC   =     -3555.10497943
  -exchange      EXHF   =         0.00000000
  -V(xc)+E(xc)   XCENC  =      -807.21150814
  PAW double counting   =     14799.28235317   -13482.65031092
  entropy T*S    EENTRO =         0.03970171
  eigenvalues    EBANDS =       823.00388992
  atomic energy  EATOM  =     21129.20924906
  Solvation  Ediel_sol  =         0.00000000
  ---------------------------------------------------
  free energy    TOTEN  =      -511.17580120 eV

  energy without entropy =     -511.21550291  energy(sigma->0) =     -511.18903510


--------------------------------------------------------------------------------------------------------




----------------------------------------- Iteration    1(  17)  ---------------------------------------


    POTLOK:  cpu time    1.6920: real time    1.7023
    SETDIJ:  cpu time    2.2200: real time    2.2338
     EDDAV:  cpu time 1338.1120: real time 1348.0188
       DOS:  cpu time    0.0760: real time    0.0768
    CHARGE:  cpu time   48.9040: real time   49.2536
    MIXING:  cpu time    0.1240: real time    0.1260
    --------------------------------------------
      LOOP:  cpu time 1391.1320: real time 1401.4216

 eigenvalue-minimisations  : 50912
 total energy-change (2. order) : 0.7040321E+00  (-0.2391928E+00)
 number of electron     432.0000002 magnetization      87.1854885
 augmentation part       92.7257189 magnetization      62.3082970

 Broyden mixing:
  rms(total) = 0.11032E+01    rms(broyden)= 0.11030E+01
  rms(prec ) = 0.14663E+01
  weight for this iteration     100.00

 eigenvalues of (default mixing * dielectric matrix)
  average eigenvalue GAMMA=   0.6533
  2.0771  2.0771  0.9867  0.9867  0.4881  0.3389  0.2663  0.1191  0.1191  0.1540
  0.1269  0.1003

 Free energy of the ion-electron system (eV)
  ---------------------------------------------------
  alpha Z        PSCENC =      1700.89082154
  Ewald energy   TEWEN  =    -21118.63501810
  -Hartree energ DENC   =     -3543.03294446
  -exchange      EXHF   =         0.00000000
  -V(xc)+E(xc)   XCENC  =      -798.69264090
  PAW double counting   =     14843.61410375   -13536.58218383
  entropy T*S    EENTRO =         0.05101400
  eigenvalues    EBANDS =       812.70582981
  atomic energy  EATOM  =     21129.20924906
  Solvation  Ediel_sol  =         0.00000000
  ---------------------------------------------------
  free energy    TOTEN  =      -510.47176914 eV

  energy without entropy =     -510.52278314  energy(sigma->0) =     -510.48877381


--------------------------------------------------------------------------------------------------------




----------------------------------------- Iteration    1(  18)  ---------------------------------------


    POTLOK:  cpu time    1.7000: real time    1.7125
    SETDIJ:  cpu time    2.2000: real time    2.2148
     EDDAV:  cpu time 1275.8880: real time 1285.3997
       DOS:  cpu time    0.0680: real time    0.0709
    CHARGE:  cpu time   49.2480: real time   49.6020
    MIXING:  cpu time    0.1120: real time    0.1115
    --------------------------------------------
      LOOP:  cpu time 1329.2240: real time 1339.1231

 eigenvalue-minimisations  : 48176
 total energy-change (2. order) : 0.1054421E+01  (-0.3328211E+00)
 number of electron     432.0000002 magnetization      89.5672195
 augmentation part       91.7264361 magnetization      63.9155151

 Broyden mixing:
  rms(total) = 0.90632E+00    rms(broyden)= 0.90615E+00
  rms(prec ) = 0.11506E+01
  weight for this iteration     100.00

 eigenvalues of (default mixing * dielectric matrix)
  average eigenvalue GAMMA=   0.6428
  2.1567  2.1567  1.0533  1.0533  0.4611  0.3327  0.2625  0.2625  0.1191  0.1191
  0.1514  0.1003  0.1278

 Free energy of the ion-electron system (eV)
  ---------------------------------------------------
  alpha Z        PSCENC =      1700.89082154
  Ewald energy   TEWEN  =    -21118.63501810
  -Hartree energ DENC   =     -3532.49834191
  -exchange      EXHF   =         0.00000000
  -V(xc)+E(xc)   XCENC  =      -794.23944081
  PAW double counting   =     14860.77247740   -13567.48892220
  entropy T*S    EENTRO =         0.04087878
  eigenvalues    EBANDS =       812.53094849
  atomic energy  EATOM  =     21129.20924906
  Solvation  Ediel_sol  =         0.00000000
  ---------------------------------------------------
  free energy    TOTEN  =      -509.41734776 eV

  energy without entropy =     -509.45822654  energy(sigma->0) =     -509.43097402


--------------------------------------------------------------------------------------------------------




----------------------------------------- Iteration    1(  19)  ---------------------------------------


    POTLOK:  cpu time    1.7120: real time    1.7261
    SETDIJ:  cpu time    2.1560: real time    2.1757
     EDDAV:  cpu time 1288.0760: real time 1298.8319
       DOS:  cpu time    0.0720: real time    0.0728
    CHARGE:  cpu time   49.9480: real time   50.3736
    MIXING:  cpu time    0.0760: real time    0.0732
    --------------------------------------------
      LOOP:  cpu time 1342.0400: real time 1353.2612

 eigenvalue-minimisations  : 48872
 total energy-change (2. order) : 0.3930355E+00  (-0.2231435E+00)
 number of electron     432.0000002 magnetization      92.8908311
 augmentation part       90.9079306 magnetization      66.7059622

 Broyden mixing:
  rms(total) = 0.60247E+00    rms(broyden)= 0.60236E+00
  rms(prec ) = 0.70135E+00
  weight for this iteration     100.00

 eigenvalues of (default mixing * dielectric matrix)
  average eigenvalue GAMMA=   0.6649
  2.2247  2.2247  1.1213  1.1213  0.5802  0.5802  0.3558  0.3036  0.1191  0.1191
  0.1003  0.1270  0.1724  0.1591

 Free energy of the ion-electron system (eV)
  ---------------------------------------------------
  alpha Z        PSCENC =      1700.89082154
  Ewald energy   TEWEN  =    -21118.63501810
  -Hartree energ DENC   =     -3527.57742262
  -exchange      EXHF   =         0.00000000
  -V(xc)+E(xc)   XCENC  =      -792.21544636
  PAW double counting   =     14868.94525928   -13583.85587416
  entropy T*S    EENTRO =         0.03204134
  eigenvalues    EBANDS =       814.18207780
  atomic energy  EATOM  =     21129.20924906
  Solvation  Ediel_sol  =         0.00000000
  ---------------------------------------------------
  free energy    TOTEN  =      -509.02431223 eV

  energy without entropy =     -509.05635358  energy(sigma->0) =     -509.03499268


--------------------------------------------------------------------------------------------------------




----------------------------------------- Iteration    1(  20)  ---------------------------------------


    POTLOK:  cpu time    1.6800: real time    1.6936
    SETDIJ:  cpu time    2.1440: real time    2.1608
     EDDAV:  cpu time 1242.8720: real time 1252.6479
       DOS:  cpu time    0.0680: real time    0.0698
    CHARGE:  cpu time   49.8440: real time   50.1937
    MIXING:  cpu time    0.0760: real time    0.0784
    --------------------------------------------
      LOOP:  cpu time 1296.6840: real time 1306.8522

 eigenvalue-minimisations  : 47352
 total energy-change (2. order) :-0.1255715E+00  (-0.6625544E-01)
 number of electron     432.0000002 magnetization      94.2668410
 augmentation part       90.4337831 magnetization      67.6241643

 Broyden mixing:
  rms(total) = 0.57652E+00    rms(broyden)= 0.57648E+00
  rms(prec ) = 0.68012E+00
  weight for this iteration     100.00

 eigenvalues of (default mixing * dielectric matrix)
  average eigenvalue GAMMA=   0.6593
  2.2551  2.2551  1.1106  1.1106  0.6657  0.6657  0.4175  0.3319  0.2734  0.1191
  0.1191  0.1003  0.1271  0.1828  0.1553

 Free energy of the ion-electron system (eV)
  ---------------------------------------------------
  alpha Z        PSCENC =      1700.89082154
  Ewald energy   TEWEN  =    -21118.63501810
  -Hartree energ DENC   =     -3525.04587018
  -exchange      EXHF   =         0.00000000
  -V(xc)+E(xc)   XCENC  =      -789.31161968
  PAW double counting   =     14882.80311092   -13602.95824812
  entropy T*S    EENTRO =         0.02332957
  eigenvalues    EBANDS =       813.87436128
  atomic energy  EATOM  =     21129.20924906
  Solvation  Ediel_sol  =         0.00000000
  ---------------------------------------------------
  free energy    TOTEN  =      -509.14988372 eV

  energy without entropy =     -509.17321329  energy(sigma->0) =     -509.15766025


--------------------------------------------------------------------------------------------------------




----------------------------------------- Iteration    1(  21)  ---------------------------------------


    POTLOK:  cpu time    1.6760: real time    1.6886
    SETDIJ:  cpu time    2.1160: real time    2.1293
     EDDAV:  cpu time 1299.6840: real time 1309.0819
       DOS:  cpu time    0.0720: real time    0.0738
    CHARGE:  cpu time   50.0760: real time   50.4309
    MIXING:  cpu time    0.0880: real time    0.0886
    --------------------------------------------
      LOOP:  cpu time 1353.7200: real time 1363.5014

 eigenvalue-minimisations  : 49904
 total energy-change (2. order) :-0.9747069E-02  (-0.3822000E-01)
 number of electron     432.0000002 magnetization      96.9556465
 augmentation part       90.3369553 magnetization      70.1211847

 Broyden mixing:
  rms(total) = 0.51303E+00    rms(broyden)= 0.51298E+00
  rms(prec ) = 0.58765E+00
  weight for this iteration     100.00

 eigenvalues of (default mixing * dielectric matrix)
  average eigenvalue GAMMA=   0.7052
  2.4071  2.4071  1.2522  1.2522  0.8581  0.8581  0.6183  0.3435  0.2898  0.1191
  0.1191  0.1003  0.1271  0.1979  0.1565  0.1764

 Free energy of the ion-electron system (eV)
  ---------------------------------------------------
  alpha Z        PSCENC =      1700.89082154
  Ewald energy   TEWEN  =    -21118.63501810
  -Hartree energ DENC   =     -3523.82490318
  -exchange      EXHF   =         0.00000000
  -V(xc)+E(xc)   XCENC  =      -788.37660513
  PAW double counting   =     14886.27261038   -13608.08162649
  entropy T*S    EENTRO =         0.01967654
  eigenvalues    EBANDS =       813.36616459
  atomic energy  EATOM  =     21129.20924906
  Solvation  Ediel_sol  =         0.00000000
  ---------------------------------------------------
  free energy    TOTEN  =      -509.15963079 eV

  energy without entropy =     -509.17930734  energy(sigma->0) =     -509.16618964


--------------------------------------------------------------------------------------------------------




----------------------------------------- Iteration    1(  22)  ---------------------------------------


    POTLOK:  cpu time    1.7000: real time    1.7124
    SETDIJ:  cpu time    2.1600: real time    2.1714
     EDDAV:  cpu time 1194.8960: real time 1203.6542
       DOS:  cpu time    0.0720: real time    0.0714
    CHARGE:  cpu time   47.8600: real time   48.2124
    MIXING:  cpu time    0.0600: real time    0.0584
    --------------------------------------------
      LOOP:  cpu time 1246.7520: real time 1255.8877

 eigenvalue-minimisations  : 45072
 total energy-change (2. order) :-0.1119986E+00  (-0.4273067E-01)
 number of electron     432.0000002 magnetization      97.9349064
 augmentation part       90.0501953 magnetization      70.6576661

 Broyden mixing:
  rms(total) = 0.40383E+00    rms(broyden)= 0.40374E+00
  rms(prec ) = 0.47232E+00
  weight for this iteration     100.00

 eigenvalues of (default mixing * dielectric matrix)
  average eigenvalue GAMMA=   0.7150
  2.2286  2.2286  1.4061  1.4061  1.1067  0.8850  0.6254  0.6254  0.3522  0.3017
  0.1191  0.1191  0.1003  0.1271  0.1559  0.1887  0.1792

 Free energy of the ion-electron system (eV)
  ---------------------------------------------------
  alpha Z        PSCENC =      1700.89082154
  Ewald energy   TEWEN  =    -21118.63501810
  -Hartree energ DENC   =     -3519.80597027
  -exchange      EXHF   =         0.00000000
  -V(xc)+E(xc)   XCENC  =      -787.69085273
  PAW double counting   =     14881.96033548   -13608.91718337
  entropy T*S    EENTRO =         0.01296785
  eigenvalues    EBANDS =       813.70402116
  atomic energy  EATOM  =     21129.20924906
  Solvation  Ediel_sol  =         0.00000000
  ---------------------------------------------------
  free energy    TOTEN  =      -509.27162939 eV

  energy without entropy =     -509.28459724  energy(sigma->0) =     -509.27595200


--------------------------------------------------------------------------------------------------------




----------------------------------------- Iteration    1(  23)  ---------------------------------------


    POTLOK:  cpu time    1.4600: real time    1.4679
    SETDIJ:  cpu time    1.9680: real time    1.9802
     EDDAV:  cpu time 1293.3600: real time 1303.1220
       DOS:  cpu time    0.0680: real time    0.0689
    CHARGE:  cpu time   50.0440: real time   50.4145
    MIXING:  cpu time    0.0680: real time    0.0688
    --------------------------------------------
      LOOP:  cpu time 1346.9680: real time 1357.1289

 eigenvalue-minimisations  : 49328
 total energy-change (2. order) :-0.5882745E-01  (-0.1878666E-01)
 number of electron     432.0000002 magnetization      98.9231927
 augmentation part       89.9510127 magnetization      71.4871774

 Broyden mixing:
  rms(total) = 0.40056E+00    rms(broyden)= 0.40052E+00
  rms(prec ) = 0.49377E+00
[...]
    FORCOR:  cpu time    0.9400: real time    0.9437
    FORHAR:  cpu time    0.1760: real time    0.1757
    MIXING:  cpu time    0.0560: real time    0.0561
    OFIELD:  cpu time    0.0000: real time    0.0000

  FORCE on cell =-STRESS in cart. coord.  units (eV):
  Direction    XX          YY          ZZ          XY          YZ          ZX
  --------------------------------------------------------------------------------------
  Alpha Z  1700.89082  1700.89082  1700.89082
  Ewald   -7519.80078 -7516.73838 -6082.22296     0.00000    -6.89899    -0.00000
  Hartree   865.03611   867.11131  1783.65630    -0.00000    -1.67886    -0.00000
  E(xc)   -1890.16796 -1890.16356 -1899.37371     0.00004     0.12155     0.00000
  Local    1206.41223  1200.99355 -1202.68544    -0.00054     8.21149     0.00000
  n-local   475.44177   475.52177   451.73362     0.00297    -0.39197     0.05408
  augment  1018.51101  1018.51361  1056.79753     0.00060    -0.06838     0.00000
  Kinetic  4144.19684  4143.71012  4191.75031     1.01821    -0.14490    -0.20206
  Fock        0.00000     0.00000     0.00000     0.00000     0.00000     0.00000
  -------------------------------------------------------------------------------------
  Total       0.52006    -0.16076     0.54647     0.00000    -0.85006     0.00000
  in kB       0.72183    -0.22313     0.75848     0.00000    -1.17986     0.00000
  external pressure =        0.42 kB  Pullay stress =        0.00 kB


 VOLUME and BASIS-vectors are now :
 -----------------------------------------------------------------------------
  energy-cutoff  :      320.00
  volume of cell :     1154.33
      direct lattice vectors                 reciprocal lattice vectors
    11.000217144  0.000000000  0.000000000     0.090907296  0.052485352 -0.000000000
    -5.500108572  9.526467494  0.000000000     0.000000000  0.104970704  0.000000000
     0.000000000  0.000000000 11.015273102     0.000000000 -0.000000000  0.090783042

  length of vectors
    11.000217144 11.000217144 11.015273102     0.104970704  0.104970704  0.090783042


 FORCES acting on ions
    electron-ion (+dipol)            ewald-force                    non-local-force                 convergence-correction
 -----------------------------------------------------------------------------------------------
   -.144E+00 -.492E+01 0.217E-01   0.173E+00 0.501E+01 -.799E-14   -.776E-01 -.143E+00 -.116E-01   0.181E-03 0.300E-03 -.805E-04
   0.560E+00 0.503E+01 -.293E-01   -.515E+00 -.517E+01 0.568E-12   -.371E-01 0.101E+00 0.111E-01   -.197E-03 0.322E-03 -.137E-03
   -.165E+01 0.162E+00 -.394E-01   0.164E+01 -.164E+00 0.117E-11   0.285E-01 -.885E-03 -.306E-02   0.158E-04 -.156E-04 -.218E-03
   -.783E+01 -.692E-06 0.533E-06   0.802E+01 -.981E-11 -.613E-12   -.253E+00 0.000E+00 0.000E+00   0.347E-03 -.129E-07 -.752E-08
   0.334E+02 -.836E-06 0.234E-06   -.342E+02 -.162E-12 -.192E-12   -.582E+00 0.000E+00 0.000E+00   0.743E-04 0.206E-09 -.122E-08
   -.931E+01 0.208E-05 -.122E-05   0.957E+01 0.983E-11 0.575E-12   -.270E+00 0.000E+00 0.000E+00   -.418E-03 0.117E-07 0.401E-08
   -.165E+01 -.162E+00 0.394E-01   0.164E+01 0.164E+00 -.119E-11   0.285E-01 0.885E-03 0.306E-02   0.157E-04 0.156E-04 0.218E-03
   -.144E+00 0.492E+01 -.217E-01   0.173E+00 -.501E+01 -.641E-12   -.776E-01 0.143E+00 0.116E-01   0.181E-03 -.300E-03 0.805E-04
   0.560E+00 -.503E+01 0.293E-01   -.515E+00 0.517E+01 0.124E-13   -.371E-01 -.101E+00 -.111E-01   -.197E-03 -.322E-03 0.137E-03
   0.194E+00 -.548E+00 -.641E-02   -.192E+00 0.544E+00 -.160E-13   0.602E-02 0.426E-03 0.516E-02   0.330E-04 0.291E-03 0.679E-04
   0.281E+00 0.504E+00 0.549E-02   -.278E+00 -.505E+00 0.632E-12   0.684E-03 0.131E-01 -.283E-02   -.172E-04 0.317E-03 0.158E-03
   -.493E+00 0.397E-01 -.574E-01   0.478E+00 -.402E-01 0.112E-11   -.819E-02 0.182E-02 0.333E-01   -.169E-04 0.263E-03 0.194E-03
   -.735E+00 0.153E-07 0.122E-08   0.733E+00 -.980E-11 -.573E-12   0.252E-02 0.000E+00 0.000E+00   0.310E-04 -.919E-08 -.120E-08
   0.142E+01 -.824E-08 -.743E-08   -.139E+01 0.142E-13 -.115E-13   -.223E-01 0.000E+00 0.000E+00   0.305E-04 -.870E-08 -.843E-09
   -.614E+00 -.147E-07 0.421E-08   0.615E+00 0.984E-11 0.525E-12   -.168E-01 0.000E+00 0.000E+00   -.596E-04 0.108E-07 0.192E-08
   -.493E+00 -.397E-01 0.574E-01   0.478E+00 0.402E-01 -.113E-11   -.819E-02 -.182E-02 -.333E-01   -.169E-04 -.263E-03 -.194E-03
   0.194E+00 0.548E+00 0.641E-02   -.192E+00 -.544E+00 -.668E-12   0.602E-02 -.426E-03 -.516E-02   0.330E-04 -.291E-03 -.679E-04
   0.281E+00 -.504E+00 -.549E-02   -.278E+00 0.505E+00 -.213E-13   0.684E-03 -.131E-01 0.283E-02   -.172E-04 -.317E-03 -.158E-03
   0.284E+00 -.180E+01 -.114E+01   -.249E+00 0.177E+01 0.115E+01   0.104E-01 0.535E-01 0.200E-01   0.970E-04 0.312E-03 0.328E-03
   0.415E+00 0.174E+01 0.121E+01   -.526E+00 -.171E+01 -.114E+01   0.678E-01 -.631E-01 -.623E-01   -.919E-04 0.220E-03 0.161E-03
   -.990E+00 0.916E-01 0.588E-01   0.970E+00 -.903E-01 -.429E-01   0.133E-01 -.398E-02 -.131E-01   -.133E-05 0.128E-03 -.129E-03
   -.259E+01 0.123E+00 -.202E+01   0.264E+01 -.980E-11 0.208E+01   -.134E-01 -.846E-01 -.268E-01   0.182E-03 -.735E-04 -.116E-03
   0.814E+01 -.362E-02 -.139E+01   -.825E+01 0.160E-13 0.125E+01   0.922E-02 0.455E-02 -.297E-01   -.387E-04 -.954E-04 -.696E-04
   -.266E+01 0.313E-01 0.261E+01   0.264E+01 0.983E-11 -.256E+01   0.383E-01 0.264E-01 -.411E-01   -.149E-03 -.949E-04 -.659E-04
   -.984E+00 -.912E-01 -.132E-01   0.970E+00 0.903E-01 -.429E-01   0.625E-02 0.574E-02 -.208E-02   0.805E-04 -.296E-04 -.150E-03
   0.177E+00 0.163E+01 -.108E+01   -.249E+00 -.177E+01 0.115E+01   0.376E-01 0.998E-01 -.542E-01   0.372E-04 -.178E-03 0.310E-03
   0.540E+00 -.170E+01 0.116E+01   -.526E+00 0.171E+01 -.114E+01   0.171E-01 -.508E-01 0.123E-01   -.117E-03 -.190E-03 0.188E-03
   0.177E+00 -.163E+01 0.108E+01   -.249E+00 0.177E+01 -.115E+01   0.376E-01 -.998E-01 0.542E-01   0.372E-04 0.178E-03 -.310E-03
   0.540E+00 0.170E+01 -.116E+01   -.526E+00 -.171E+01 0.114E+01   0.171E-01 0.508E-01 -.123E-01   -.117E-03 0.190E-03 -.188E-03
   -.984E+00 0.912E-01 0.132E-01   0.970E+00 -.903E-01 0.429E-01   0.625E-02 -.574E-02 0.208E-02   0.805E-04 0.296E-04 0.150E-03
   -.259E+01 -.123E+00 0.202E+01   0.264E+01 -.981E-11 -.208E+01   -.134E-01 0.846E-01 0.268E-01   0.182E-03 0.735E-04 0.116E-03
   0.814E+01 0.362E-02 0.139E+01   -.825E+01 0.213E-13 -.125E+01   0.922E-02 -.455E-02 0.297E-01   -.387E-04 0.954E-04 0.696E-04
   -.266E+01 -.313E-01 -.261E+01   0.264E+01 0.984E-11 0.256E+01   0.383E-01 -.264E-01 0.411E-01   -.149E-03 0.949E-04 0.659E-04
   -.990E+00 -.916E-01 -.588E-01   0.970E+00 0.903E-01 0.429E-01   0.133E-01 0.398E-02 0.131E-01   -.132E-05 -.128E-03 0.129E-03
   0.284E+00 0.180E+01 0.114E+01   -.249E+00 -.177E+01 -.115E+01   0.104E-01 -.535E-01 -.200E-01   0.970E-04 -.313E-03 -.328E-03
   0.415E+00 -.174E+01 -.121E+01   -.526E+00 0.171E+01 0.114E+01   0.678E-01 0.631E-01 0.623E-01   -.919E-04 -.220E-03 -.161E-03
   0.224E+00 -.185E-01 0.433E-03   -.222E+00 0.455E-01 0.129E-01   -.605E-02 -.527E-01 -.186E-01   -.865E-06 0.115E-03 0.114E-03
   -.108E+00 0.503E+00 0.702E-01   0.104E+00 -.496E+00 -.704E-01   0.212E-01 0.891E-02 0.187E-01   0.103E-03 0.149E-03 0.164E-03
   -.141E+00 -.439E+00 -.802E-01   0.113E+00 0.452E+00 0.583E-01   0.175E-01 -.115E-01 0.533E-01   -.103E-03 0.218E-03 0.129E-03
   0.278E+00 -.404E+00 -.103E+01   -.292E+00 0.394E+00 0.111E+01   0.172E-01 0.146E-01 -.118E+00   0.106E-03 0.245E-03 -.706E-04
   0.525E+00 0.375E+00 0.122E+01   -.513E+00 -.382E+00 -.110E+01   -.339E-01 0.139E-01 -.150E+00   -.161E-03 0.221E-03 -.293E-03
   -.938E+00 0.570E-02 0.393E-01   0.932E+00 -.195E-01 -.436E-01   -.287E-02 -.473E-02 0.300E-01   0.543E-04 0.391E-04 -.153E-03
   -.528E+00 0.390E+00 -.435E+00   0.538E+00 -.395E+00 0.420E+00   -.148E-01 0.637E-02 0.193E-01   0.185E-04 -.289E-03 -.118E-04
   0.107E+01 0.722E-01 0.266E-01   -.107E+01 -.581E-01 0.796E-01   -.843E-02 -.285E-01 -.138E+00   -.542E-04 -.433E-03 -.136E-03
   -.501E+00 -.466E+00 0.530E+00   0.468E+00 0.446E+00 -.486E+00   0.730E-01 0.466E-01 -.598E-01   0.349E-04 -.264E-03 -.268E-03
   0.768E+00 -.138E+00 0.114E-02   -.760E+00 0.153E+00 -.306E-01   -.298E-02 -.433E-01 0.313E-01   -.151E-03 0.162E-03 -.467E-04
   -.333E+00 0.130E+01 -.986E-01   0.346E+00 -.131E+01 0.111E+00   -.195E-01 0.473E-02 -.631E-02   -.902E-04 -.290E-03 -.944E-04
   -.354E+00 -.115E+01 0.101E+00   0.338E+00 0.118E+01 -.859E-01   0.250E-01 -.357E-01 -.196E-01   0.241E-03 -.531E-04 -.426E-04
   -.547E+01 -.663E+01 0.847E+01   0.557E+01 0.671E+01 -.863E+01   0.111E+00 0.323E-01 -.264E-01   0.331E-04 -.107E-04 -.101E-03
   -.526E+01 0.874E+01 -.112E+02   0.483E+01 -.848E+01 0.109E+02   0.102E+01 -.655E+00 0.907E+00   -.457E-04 0.110E-03 -.250E-03
   -.248E+01 0.499E-01 -.658E-01   0.251E+01 -.672E-01 0.785E-01   -.329E-01 0.311E-01 -.206E-01   0.575E-04 0.220E-03 -.144E-04
   -.214E+01 0.153E+01 0.856E+00   0.212E+01 -.152E+01 -.873E+00   -.449E-02 0.391E-02 0.154E-01   0.265E-03 -.644E-04 0.142E-03
   0.759E+01 0.829E+00 0.502E+00   -.760E+01 -.108E+01 -.690E+00   0.191E-01 0.215E+00 0.178E+00   -.129E-03 -.496E-05 -.112E-03
   -.223E+01 -.190E+01 -.113E+01   0.218E+01 0.187E+01 0.109E+01   0.772E-01 0.522E-01 0.490E-01   -.144E-03 -.789E-04 0.767E-05
   -.214E+01 -.153E+01 -.856E+00   0.212E+01 0.152E+01 0.873E+00   -.449E-02 -.391E-02 -.154E-01   0.265E-03 0.644E-04 -.142E-03
   0.759E+01 -.829E+00 -.502E+00   -.760E+01 0.108E+01 0.690E+00   0.191E-01 -.215E+00 -.178E+00   -.129E-03 0.496E-05 0.112E-03
   -.223E+01 0.190E+01 0.113E+01   0.218E+01 -.187E+01 -.109E+01   0.772E-01 -.522E-01 -.490E-01   -.144E-03 0.789E-04 -.768E-05
   -.248E+01 -.499E-01 0.658E-01   0.251E+01 0.672E-01 -.785E-01   -.329E-01 -.311E-01 0.206E-01   0.575E-04 -.220E-03 0.144E-04
   -.547E+01 0.663E+01 -.847E+01   0.557E+01 -.671E+01 0.863E+01   0.111E+00 -.323E-01 0.264E-01   0.331E-04 0.107E-04 0.101E-03
   -.526E+01 -.874E+01 0.112E+02   0.483E+01 0.848E+01 -.109E+02   0.102E+01 0.655E+00 -.907E+00   -.457E-04 -.110E-03 0.250E-03
   -.333E+00 -.130E+01 0.986E-01   0.346E+00 0.131E+01 -.111E+00   -.195E-01 -.473E-02 0.631E-02   -.902E-04 0.290E-03 0.944E-04
   -.354E+00 0.115E+01 -.101E+00   0.338E+00 -.118E+01 0.859E-01   0.250E-01 0.357E-01 0.196E-01   0.241E-03 0.531E-04 0.426E-04
   0.768E+00 0.138E+00 -.114E-02   -.760E+00 -.153E+00 0.306E-01   -.298E-02 0.433E-01 -.313E-01   -.151E-03 -.162E-03 0.467E-04
   -.528E+00 -.390E+00 0.435E+00   0.538E+00 0.395E+00 -.420E+00   -.148E-01 -.637E-02 -.193E-01   0.185E-04 0.289E-03 0.118E-04
   0.107E+01 -.722E-01 -.266E-01   -.107E+01 0.581E-01 -.796E-01   -.843E-02 0.285E-01 0.138E+00   -.542E-04 0.433E-03 0.136E-03
   -.501E+00 0.466E+00 -.530E+00   0.468E+00 -.446E+00 0.486E+00   0.730E-01 -.466E-01 0.598E-01   0.349E-04 0.264E-03 0.268E-03
   -.938E+00 -.570E-02 -.393E-01   0.932E+00 0.195E-01 0.436E-01   -.287E-02 0.473E-02 -.300E-01   0.543E-04 -.391E-04 0.153E-03
   0.278E+00 0.404E+00 0.103E+01   -.292E+00 -.394E+00 -.111E+01   0.172E-01 -.146E-01 0.118E+00   0.106E-03 -.245E-03 0.706E-04
   0.525E+00 -.375E+00 -.122E+01   -.513E+00 0.382E+00 0.110E+01   -.339E-01 -.139E-01 0.150E+00   -.161E-03 -.221E-03 0.293E-03
   -.108E+00 -.503E+00 -.702E-01   0.104E+00 0.496E+00 0.704E-01   0.212E-01 -.891E-02 -.187E-01   0.103E-03 -.149E-03 -.164E-03
   -.141E+00 0.439E+00 0.802E-01   0.113E+00 -.452E+00 -.583E-01   0.175E-01 0.115E-01 -.533E-01   -.103E-03 -.218E-03 -.129E-03
   0.224E+00 0.185E-01 -.433E-03   -.222E+00 -.455E-01 -.129E-01   -.605E-02 0.527E-01 0.186E-01   -.865E-06 -.115E-03 -.114E-03
 -----------------------------------------------------------------------------------------------
   -.158E+01 0.597E-06 -.345E-06   -.308E-14 -.145E-12 -.430E-12   0.157E+01 -.208E-16 0.153E-15   0.672E-04 0.242E-07 -.675E-08


 POSITION                                       TOTAL-FORCE (eV/Angst)
 -----------------------------------------------------------------------------------
      3.66674      6.35098      0.00000        -0.048200     -0.049637      0.010015
     -3.66674      6.35098      0.00000         0.008030     -0.037245     -0.018292
     -0.00000      6.35098      0.00000         0.017108     -0.002592     -0.042713
      7.33348      0.00000      0.00000        -0.062420     -0.000000     -0.000000
      0.26401      0.00000      0.00000        -1.387529     -0.000000     -0.000000
      3.66674      0.00000      0.00000        -0.003765     -0.000000     -0.000000
      5.50011      3.17549      0.00000         0.017108      0.002592      0.042713
     -1.83337      3.17549      0.00000        -0.048200      0.049637     -0.010015
      1.83337      3.17549      0.00000         0.008030      0.037245      0.018292
      3.66674      6.35098      5.50764         0.008505     -0.003266     -0.001176
     -3.66674      6.35098      5.50764         0.003219      0.012293      0.002811
     -0.00000      6.35098      5.50764        -0.023398      0.001591     -0.023846
      7.33348      0.00000      5.50764         0.000550     -0.000000     -0.000000
      0.00000      0.00000      5.50764         0.009491     -0.000000     -0.000000
      3.66674      0.00000      5.50764        -0.015190     -0.000000     -0.000000
      5.50011      3.17549      5.50764        -0.023398     -0.001591      0.023846
     -1.83337      3.17549      5.50764         0.008505      0.003266      0.001176
      1.83337      3.17549      5.50764         0.003219     -0.012293     -0.002811
      3.66674      6.35098      8.26145         0.045594      0.017309      0.034844
     -3.66674      6.35098      8.26145        -0.043059     -0.036530      0.011097
     -0.00000      6.35098      8.26145        -0.006224     -0.002558      0.002566
      7.33348      0.00000      8.26145         0.034710      0.038706      0.031216
      0.00000      0.00000      8.26145        -0.097110      0.000837     -0.167236
      3.66674      0.00000      8.26145         0.016093      0.057550      0.008738
      5.50011      3.17549      8.26145        -0.006987      0.004760     -0.058309
     -1.83337      3.17549      8.26145        -0.033941     -0.039041      0.023298
      1.83337      3.17549      8.26145         0.031401     -0.033744      0.027800
      3.66674      6.35098      2.75382        -0.033941      0.039041     -0.023298
     -3.66674      6.35098      2.75382         0.031401      0.033744     -0.027800
     -0.00000      6.35098      2.75382        -0.006987     -0.004760      0.058309
      7.33348      0.00000      2.75382         0.034710     -0.038706     -0.031216
      0.00000      0.00000      2.75382        -0.097110     -0.000837      0.167236
      3.66674      0.00000      2.75382         0.016093     -0.057550     -0.008738
      5.50011      3.17549      2.75382        -0.006224      0.002558     -0.002566
     -1.83337      3.17549      2.75382         0.045594     -0.017309     -0.034844
      1.83337      3.17549      2.75382        -0.043059      0.036530     -0.011097
      5.50011      5.29248      6.88455        -0.003717     -0.025596     -0.005163
     -1.83337      5.29248      6.88455         0.017344      0.016441      0.018704
      1.83337      5.29248      6.88455        -0.010611      0.001595      0.031594
      3.66674      8.46797      6.88455         0.004133      0.005127     -0.036055
     -3.66674      8.46797      6.88455        -0.022469      0.006564     -0.024627
     -0.00000      8.46797      6.88455        -0.009268     -0.018545      0.025513
      7.33348      2.11699      6.88455        -0.004622      0.001473      0.003901
     -0.00000      2.11699      6.88455        -0.006780     -0.014905     -0.031748
      3.66674      2.11699      6.88455         0.040280      0.025592     -0.016333
      5.50011      5.29248      1.37691         0.004658     -0.028758      0.001861
     -1.83337      5.29248      1.37691        -0.005556     -0.003221      0.005604
      1.83337      5.29248      1.37691         0.009152     -0.007379     -0.004570
      3.66674      8.46797      1.37691         0.208240      0.112155     -0.187547
     -3.66674      8.46797      1.37691         0.591494     -0.392624      0.602220
     -0.00000      8.46797      1.37691        -0.004243      0.014139     -0.007879
      7.33348      2.11699      1.37691        -0.021198      0.014815     -0.001264
     -0.00000      2.11699      1.37691         0.005783     -0.031687     -0.010598
      3.66674      2.11699      1.37691         0.031073      0.015832      0.007475
      1.83337      7.40947      9.63836        -0.021198     -0.014815      0.001264
      5.50011      7.40947      9.63836         0.005783      0.031687      0.010598
     -1.83337      7.40947      9.63836         0.031073     -0.015832     -0.007475
      5.50011      1.05850      9.63836        -0.004243     -0.014139      0.007879
      9.16685      1.05850      9.63836         0.208240     -0.112155      0.187547
      1.83337      1.05850      9.63836         0.591494      0.392624     -0.602220
      3.66674      4.23399      9.63836        -0.005556      0.003221     -0.005604
      7.33348      4.23399      9.63836         0.009152      0.007379      0.004570
     -0.00000      4.23399      9.63836         0.004658      0.028758     -0.001861
      1.83337      7.40947      4.13073        -0.004622     -0.001473     -0.003901
      5.50011      7.40947      4.13073        -0.006780      0.014905      0.031748
     -1.83337      7.40947      4.13073         0.040280     -0.025592      0.016333
      5.50011      1.05850      4.13073        -0.009268      0.018545     -0.025513
      9.16685      1.05850      4.13073         0.004133     -0.005127      0.036055
      1.83337      1.05850      4.13073        -0.022469     -0.006564      0.024627
      3.66674      4.23399      4.13073         0.017344     -0.016441     -0.018704
      7.33348      4.23399      4.13073        -0.010611     -0.001595     -0.031594
     -0.00000      4.23399      4.13073        -0.003717      0.025596      0.005163
 -----------------------------------------------------------------------------------
    total drift:                               -0.005997      0.000001     -0.000000


--------------------------------------------------------------------------------------------------------



  FREE ENERGIE OF THE ION-ELECTRON SYSTEM (eV)
  ---------------------------------------------------
  free  energy   TOTEN  =      -509.42754776 eV

  energy  without entropy=     -509.43913637  energy(sigma->0) =     -509.43141063



--------------------------------------------------------------------------------------------------------


    POTLOK:  cpu time    2.0720: real time    2.0702


--------------------------------------------------------------------------------------------------------


     LOOP+:  cpu time50178.3160: real time50482.3015
    4ORBIT:  cpu time    0.0000: real time    0.0000

 total amount of memory used by VASP on root node   334143. kBytes
========================================================================

   base      :      30000. kBytes
   nonlr-proj:      20524. kBytes
   fftplans  :      28296. kBytes
   grid      :      21369. kBytes
   one-center:        559. kBytes
   wavefun   :     233395. kBytes

  
  
 General timing and accounting informations for this job:
 ========================================================
  
                  Total CPU time used (sec):    50329.441
                            User time (sec):    49988.984
                          System time (sec):      340.456
                         Elapsed time (sec):    50637.797
  
                   Maximum memory used (kb):      386180.
                   Average memory used (kb):           0.
  
                          Minor page faults:        95323
                          Major page faults:            3
                 Voluntary context switches:          631
