 vasp.5.4.1 24Jun15 (build Oct  9 2015 14:58:31) complex                         
 executed on           IFC91_ompi date 2017.05.25  07:06:24
 running on   16 total cores
 distrk:  each k-point on   16 cores,    1 groups
 distr:  one band on NCORES_PER_BAND=   4 cores,    4 groups


--------------------------------------------------------------------------------------------------------


 INCAR:
 POTCAR:   PAW_PBE Mn 06Sep2000                   
 POTCAR:   PAW_PBE As 06Sep2000                   
 POTCAR:   PAW_PBE Mn 06Sep2000                   
   VRHFIN =Mn: d6 s1                                                            
   LEXCH  = PE                                                                  
   EATOM  =   416.8732 eV,   30.6393 Ry                                         
                                                                                
   TITEL  = PAW_PBE Mn 06Sep2000                                                
   LULTRA =        F    use ultrasoft PP ?                                      
   IUNSCR =        1    unscreen: 0-lin 1-nonlin 2-no                           
   RPACOR =    2.000    partial core radius                                     
   POMASS =   54.938; ZVAL   =    7.000    mass and valenz                      
   RCORE  =    2.300    outmost cutoff radius                                   
   RWIGS  =    2.500; RWIGS  =    1.323    wigner-seitz radius (au A)           
   ENMAX  =  269.865; ENMIN  =  202.399 eV                                      
   RCLOC  =    1.725    cutoff for local pot                                    
   LCOR   =        T    correct aug charges                                     
   LPAW   =        T    paw PP                                                  
   EAUG   =  500.711                                                            
   DEXC   =    -.071                                                            
   RMAX   =    2.807    core radius for proj-oper                               
   RAUG   =    1.300    factor for augmentation sphere                          
   RDEP   =    2.338    radius for radial grids                                 
   QCUT   =   -4.454; QGAM   =    8.907    optimization parameters              
                                                                                
   Description                                                                  
     l     E      TYP  RCUT    TYP  RCUT                                        
     2   .000     23  2.300                                                     
     2   .000     23  2.300                                                     
     0   .000     23  2.300                                                     
     0   .000     23  2.300                                                     
     1  -.200     23  2.300                                                     
     1  1.500     23  2.300                                                     
     3   .000      7   .000                                                     
  local pseudopotential read in
  partial core-charges read in
  atomic valenz-charges read in
  non local Contribution for L=           2  read in
    real space projection operators read in
  non local Contribution for L=           2  read in
    real space projection operators read in
  non local Contribution for L=           0  read in
    real space projection operators read in
  non local Contribution for L=           0  read in
    real space projection operators read in
  non local Contribution for L=           1  read in
    real space projection operators read in
  non local Contribution for L=           1  read in
    real space projection operators read in
    PAW grid and wavefunctions read in

   number of l-projection  operators is LMAX  =           6
   number of lm-projection operators is LMMAX =          18

 POTCAR:   PAW_PBE As 06Sep2000                   
   VRHFIN =As: s2p3                                                             
   LEXCH  = PE                                                                  
   EATOM  =   170.0753 eV,   12.5002 Ry                                         
                                                                                
   TITEL  = PAW_PBE As 06Sep2000                                                
   LULTRA =        F    use ultrasoft PP ?                                      
   IUNSCR =        1    unscreen: 0-lin 1-nonlin 2-no                           
   RPACOR =    1.900    partial core radius                                     
   POMASS =   74.922; ZVAL   =    5.000    mass and valenz                      
   RCORE  =    2.100    outmost cutoff radius                                   
   RWIGS  =    2.300; RWIGS  =    1.217    wigner-seitz radius (au A)           
   ENMAX  =  208.680; ENMIN  =  156.510 eV                                      
   ICORE  =        3    local potential                                         
   LCOR   =        T    correct aug charges                                     
   LPAW   =        T    paw PP                                                  
   EAUG   =  462.758                                                            
   DEXC   =    -.108                                                            
   RMAX   =    3.192    core radius for proj-oper                               
   RAUG   =    1.300    factor for augmentation sphere                          
   RDEP   =    2.140    radius for radial grids                                 
   QCUT   =   -3.916; QGAM   =    7.833    optimization parameters              
                                                                                
   Description                                                                  
     l     E      TYP  RCUT    TYP  RCUT                                        
     0   .000     23  2.100                                                     
     0   .000     23  2.100                                                     
     1   .000     23  2.100                                                     
     1   .000     23  2.100                                                     
     2   .000     23  2.100                                                     
     3  -.100      7  2.100                                                     
  local pseudopotential read in
  partial core-charges read in
  atomic valenz-charges read in
  non local Contribution for L=           0  read in
    real space projection operators read in
  non local Contribution for L=           0  read in
    real space projection operators read in
  non local Contribution for L=           1  read in
    real space projection operators read in
  non local Contribution for L=           1  read in
    real space projection operators read in
  non local Contribution for L=           2  read in
    real space projection operators read in
    PAW grid and wavefunctions read in

   number of l-projection  operators is LMAX  =           5
   number of lm-projection operators is LMMAX =          13

 PAW_PBE Mn 06Sep2000                   :
 energy of atom  1       EATOM= -416.8732
 kinetic energy error for atom=    0.0239 (will be added to EATOM!!)
 PAW_PBE As 06Sep2000                   :
 energy of atom  2       EATOM= -170.0753
 kinetic energy error for atom=    0.0021 (will be added to EATOM!!)


 POSCAR: For VASP. System=    MnAs_hex           
  positions in direct lattice
  No initial velocities read in
 exchange correlation table for  LEXCH =        8
   RHO(1)=    0.500       N(1)  =     2000
   RHO(2)=  100.500       N(2)  =     4000



--------------------------------------------------------------------------------------------------------


 ion  position               nearest neighbor table
   1  0.667  0.667  0.000-  56 2.53  55 2.53  46 2.53  49 2.53  48 2.53  61 2.53  19 2.75  28 2.75

   2  0.000  0.667  0.000-  56 2.53  46 2.53  57 2.53  47 2.53  50 2.53  62 2.53  20 2.75  29 2.75

   3  0.333  0.667  0.000-  57 2.53  47 2.53  51 2.53  55 2.53  48 2.53  63 2.53  21 2.75  30 2.75

   4  0.667  0.000  0.000-  49 2.53  59 2.53  58 2.53  52 2.53  55 2.53  51 2.53  22 2.75  31 2.75

   5  0.012  0.000  0.000-  50 2.43  60 2.43  56 2.53  53 2.53  59 2.62  49 2.62  23 2.76  32 2.76

   6  0.333  0.000  0.000-  60 2.53  50 2.53  51 2.53  57 2.53  54 2.53  58 2.53  24 2.75  33 2.75

   7  0.667  0.333  0.000-  52 2.53  62 2.53  58 2.53  54 2.53  61 2.53  46 2.53  25 2.75  34 2.75

   8  0.000  0.333  0.000-  53 2.53  52 2.53  63 2.53  62 2.53  59 2.53  47 2.53  26 2.75  35 2.75

   9  0.333  0.333  0.000-  53 2.53  54 2.53  63 2.53  60 2.53  61 2.53  48 2.53  27 2.75  36 2.75

  10  0.667  0.667  0.500-  65 2.53  64 2.53  37 2.53  40 2.53  39 2.53  70 2.53  19 2.75  28 2.75

  11  0.000  0.667  0.500-  65 2.53  37 2.53  66 2.53  38 2.53  41 2.53  71 2.53  20 2.75  29 2.75

  12  0.333  0.667  0.500-  66 2.53  38 2.53  42 2.53  64 2.53  39 2.53  72 2.53  21 2.75  30 2.75

  13  0.667  0.000  0.500-  40 2.53  68 2.53  67 2.53  43 2.53  64 2.53  42 2.53  22 2.75  31 2.75

  14  0.000  0.000  0.500-  41 2.53  68 2.53  40 2.53  69 2.53  44 2.53  65 2.53  23 2.75  32 2.75

  15  0.333  0.000  0.500-  69 2.53  41 2.53  42 2.53  66 2.53  45 2.53  67 2.53  24 2.75  33 2.75

  16  0.667  0.333  0.500-  43 2.53  71 2.53  67 2.53  45 2.53  70 2.53  37 2.53  25 2.75  34 2.75

  17  0.000  0.333  0.500-  44 2.53  43 2.53  72 2.53  71 2.53  68 2.53  38 2.53  26 2.75  35 2.75

  18  0.333  0.333  0.500-  44 2.53  45 2.53  72 2.53  69 2.53  70 2.53  39 2.53  27 2.75  36 2.75

  19  0.667  0.667  0.750-  56 2.53  55 2.53  37 2.53  40 2.53  39 2.53  61 2.53   1 2.75  10 2.75

  20  0.000  0.667  0.750-  56 2.53  37 2.53  57 2.53  38 2.53  41 2.53  62 2.53   2 2.75  11 2.75

  21  0.333  0.667  0.750-  57 2.53  38 2.53  42 2.53  55 2.53  39 2.53  63 2.53   3 2.75  12 2.75

  22  0.667  0.000  0.750-  40 2.53  59 2.53  58 2.53  43 2.53  55 2.53  42 2.53   4 2.75  13 2.75

  23  0.000  0.000  0.750-  41 2.53  59 2.53  40 2.53  60 2.53  44 2.53  56 2.53  14 2.75   5 2.76

  24  0.333  0.000  0.750-  60 2.53  41 2.53  42 2.53  57 2.53  45 2.53  58 2.53   6 2.75  15 2.75

  25  0.667  0.333  0.750-  43 2.53  62 2.53  58 2.53  45 2.53  61 2.53  37 2.53   7 2.75  16 2.75

  26  0.000  0.333  0.750-  44 2.53  43 2.53  63 2.53  62 2.53  59 2.53  38 2.53   8 2.75  17 2.75

  27  0.333  0.333  0.750-  44 2.53  45 2.53  63 2.53  60 2.53  61 2.53  39 2.53   9 2.75  18 2.75

  28  0.667  0.667  0.250-  65 2.53  64 2.53  46 2.53  49 2.53  48 2.53  70 2.53   1 2.75  10 2.75

  29  0.000  0.667  0.250-  65 2.53  46 2.53  66 2.53  47 2.53  50 2.53  71 2.53   2 2.75  11 2.75

  30  0.333  0.667  0.250-  66 2.53  47 2.53  51 2.53  64 2.53  48 2.53  72 2.53   3 2.75  12 2.75

  31  0.667  0.000  0.250-  49 2.53  68 2.53  67 2.53  52 2.53  64 2.53  51 2.53   4 2.75  13 2.75

  32  0.000  0.000  0.250-  50 2.53  68 2.53  49 2.53  69 2.53  53 2.53  65 2.53  14 2.75   5 2.76

  33  0.333  0.000  0.250-  69 2.53  50 2.53  51 2.53  66 2.53  54 2.53  67 2.53   6 2.75  15 2.75

  34  0.667  0.333  0.250-  52 2.53  71 2.53  67 2.53  54 2.53  70 2.53  46 2.53   7 2.75  16 2.75

  35  0.000  0.333  0.250-  53 2.53  52 2.53  72 2.53  71 2.53  68 2.53  47 2.53   8 2.75  17 2.75

  36  0.333  0.333  0.250-  53 2.53  54 2.53  72 2.53  69 2.53  70 2.53  48 2.53   9 2.75  18 2.75

  37  0.778  0.556  0.625-  11 2.53  20 2.53  19 2.53  10 2.53  16 2.53  25 2.53
  38  0.111  0.556  0.625-  12 2.53  21 2.53  20 2.53  11 2.53  17 2.53  26 2.53
  39  0.444  0.556  0.625-  10 2.53  19 2.53  12 2.53  21 2.53  18 2.53  27 2.53
  40  0.778  0.889  0.625-  13 2.53  22 2.53  14 2.53  23 2.53  10 2.53  19 2.53
  41  0.111  0.889  0.625-  14 2.53  23 2.53  15 2.53  24 2.53  11 2.53  20 2.53
  42  0.444  0.889  0.625-  15 2.53  24 2.53  21 2.53  12 2.53  22 2.53  13 2.53
  43  0.778  0.222  0.625-  16 2.53  25 2.53  17 2.53  26 2.53  13 2.53  22 2.53
  44  0.111  0.222  0.625-  17 2.53  26 2.53  18 2.53  27 2.53  14 2.53  23 2.53
  45  0.444  0.222  0.625-  18 2.53  27 2.53  24 2.53  15 2.53  25 2.53  16 2.53
  46  0.778  0.556  0.125-   2 2.53  29 2.53  28 2.53   1 2.53   7 2.53  34 2.53
  47  0.111  0.556  0.125-   3 2.53  30 2.53  29 2.53   2 2.53   8 2.53  35 2.53
  48  0.444  0.556  0.125-   1 2.53  28 2.53   3 2.53  30 2.53   9 2.53  36 2.53
  49  0.778  0.889  0.125-   4 2.53  31 2.53  32 2.53   1 2.53  28 2.53   5 2.62
  50  0.111  0.889  0.125-   5 2.43  32 2.53   6 2.53  33 2.53   2 2.53  29 2.53
  51  0.444  0.889  0.125-   6 2.53  33 2.53  30 2.53   3 2.53  31 2.53   4 2.53
  52  0.778  0.222  0.125-   7 2.53  34 2.53   8 2.53  35 2.53   4 2.53  31 2.53
  53  0.111  0.222  0.125-   8 2.53  35 2.53   9 2.53  36 2.53  32 2.53   5 2.53
  54  0.444  0.222  0.125-   9 2.53  36 2.53  33 2.53   6 2.53  34 2.53   7 2.53
  55  0.556  0.778  0.875-   1 2.53  19 2.53   4 2.53  22 2.53  21 2.53   3 2.53
  56  0.889  0.778  0.875-   2 2.53  20 2.53  19 2.53   1 2.53  23 2.53   5 2.53
  57  0.222  0.778  0.875-   3 2.53  21 2.53  20 2.53   2 2.53   6 2.53  24 2.53
  58  0.556  0.111  0.875-   4 2.53  22 2.53   7 2.53  25 2.53  24 2.53   6 2.53
  59  0.889  0.111  0.875-  23 2.53  22 2.53   4 2.53   8 2.53  26 2.53   5 2.62
  60  0.222  0.111  0.875-   5 2.43   6 2.53  24 2.53  23 2.53   9 2.53  27 2.53
  61  0.556  0.444  0.875-   9 2.53  27 2.53  25 2.53   7 2.53   1 2.53  19 2.53
  62  0.889  0.444  0.875-   7 2.53  25 2.53   8 2.53  26 2.53   2 2.53  20 2.53
  63  0.222  0.444  0.875-   8 2.53  26 2.53   9 2.53  27 2.53   3 2.53  21 2.53
  64  0.556  0.778  0.375-  10 2.53  28 2.53  13 2.53  31 2.53  30 2.53  12 2.53
  65  0.889  0.778  0.375-  11 2.53  29 2.53  28 2.53  10 2.53  14 2.53  32 2.53
  66  0.222  0.778  0.375-  12 2.53  30 2.53  29 2.53  11 2.53  15 2.53  33 2.53
  67  0.556  0.111  0.375-  13 2.53  31 2.53  16 2.53  34 2.53  33 2.53  15 2.53
  68  0.889  0.111  0.375-  14 2.53  32 2.53  31 2.53  13 2.53  17 2.53  35 2.53
  69  0.222  0.111  0.375-  15 2.53  33 2.53  32 2.53  14 2.53  18 2.53  36 2.53
  70  0.556  0.444  0.375-  18 2.53  36 2.53  34 2.53  16 2.53  10 2.53  28 2.53
  71  0.889  0.444  0.375-  16 2.53  34 2.53  17 2.53  35 2.53  11 2.53  29 2.53
  72  0.222  0.444  0.375-  17 2.53  35 2.53  18 2.53  36 2.53  12 2.53  30 2.53

  LATTYP: Found a hexagonal cell.
 ALAT       =    11.0002171438
 C/A-ratio  =     1.0013686964
  
  Lattice vectors:
  
 A1 = (  11.0002171438,   0.0000000000,   0.0000000000)
 A2 = (  -5.5001085719,   9.5264674936,   0.0000000000)
 A3 = (   0.0000000000,   0.0000000000,  11.0152731015)


Analysis of symmetry for initial positions (statically):
=====================================================================
 Subroutine PRICEL returns:
 Original cell was already a primitive cell.
 

 Routine SETGRP: Setting up the symmetry group for a 
 hexagonal supercell.


 Subroutine GETGRP returns: Found  2 space group operations
 (whereof  2 operations were pure point group operations)
 out of a pool of 24 trial point group operations.


The static configuration has the point symmetry C_2 .


Analysis of symmetry for dynamics (positions and initial velocities):
=====================================================================
 Subroutine PRICEL returns:
 Original cell was already a primitive cell.
 

 Routine SETGRP: Setting up the symmetry group for a 
 hexagonal supercell.


 Subroutine GETGRP returns: Found  2 space group operations
 (whereof  2 operations were pure point group operations)
 out of a pool of 24 trial point group operations.


The dynamic configuration has the point symmetry C_2 .


Analysis of structural, dynamic, and magnetic symmetry:
=====================================================================
 Subroutine PRICEL returns:
 Original cell was already a primitive cell.
 

 Routine SETGRP: Setting up the symmetry group for a 
 hexagonal supercell.


 Subroutine GETGRP returns: Found  2 space group operations
 (whereof  2 operations were pure point group operations)
 out of a pool of 24 trial point group operations.


The magnetic configuration has the point symmetry C_2 .


 Subroutine INISYM returns: Found  2 space group operations
 (whereof  2 operations are pure point group operations),
 and found     1 'primitive' translations



 KPOINTS: Automatic mesh                          

Automatic generation of k-mesh.
Space group operators:
 irot       det(A)        alpha          n_x          n_y          n_z        tau_x        tau_y        tau_z
    1     1.000000     0.000000     1.000000     0.000000     0.000000     0.000000     0.000000     0.000000
    2     1.000000   180.000000     1.000000     0.000000     0.000000     0.000000     0.000000     0.000000
 
 Subroutine IBZKPT returns following result:
 ===========================================
 
 Found     24 irreducible k-points:
 
 Following reciprocal coordinates:
            Coordinates               Weight
  0.000000  0.000000  0.000000      1.000000
  0.250000  0.000000  0.000000      4.000000
  0.500000  0.000000  0.000000      2.000000
  0.000000  0.250000  0.000000      2.000000
  0.250000  0.250000  0.000000      4.000000
  0.500000  0.250000  0.000000      2.000000
  0.000000  0.500000  0.000000      1.000000
  0.000000  0.000000  0.250000      2.000000
  0.250000  0.000000  0.250000      4.000000
  0.500000  0.000000  0.250000      4.000000
 -0.250000  0.000000  0.250000      4.000000
  0.000000  0.250000  0.250000      2.000000
  0.250000  0.250000  0.250000      4.000000
  0.500000  0.250000  0.250000      4.000000
  0.000000  0.500000  0.250000      2.000000
  0.250000  0.500000  0.250000      4.000000
  0.000000 -0.250000  0.250000      2.000000
  0.000000  0.000000  0.500000      1.000000
  0.250000  0.000000  0.500000      4.000000
  0.500000  0.000000  0.500000      2.000000
  0.000000  0.250000  0.500000      2.000000
  0.250000  0.250000  0.500000      4.000000
  0.500000  0.250000  0.500000      2.000000
  0.000000  0.500000  0.500000      1.000000
 
 Following cartesian coordinates:
            Coordinates               Weight
  0.000000  0.000000  0.000000      1.000000
  0.022727  0.013121  0.000000      4.000000
  0.045454  0.026243  0.000000      2.000000
  0.000000  0.026243  0.000000      2.000000
  0.022727  0.039364  0.000000      4.000000
  0.045454  0.052485  0.000000      2.000000
  0.000000  0.052485  0.000000      1.000000
  0.000000  0.000000  0.022696      2.000000
  0.022727  0.013121  0.022696      4.000000
  0.045454  0.026243  0.022696      4.000000
 -0.022727 -0.013121  0.022696      4.000000
  0.000000  0.026243  0.022696      2.000000
  0.022727  0.039364  0.022696      4.000000
  0.045454  0.052485  0.022696      4.000000
  0.000000  0.052485  0.022696      2.000000
  0.022727  0.065607  0.022696      4.000000
  0.000000 -0.026243  0.022696      2.000000
  0.000000  0.000000  0.045392      1.000000
  0.022727  0.013121  0.045392      4.000000
  0.045454  0.026243  0.045392      2.000000
  0.000000  0.026243  0.045392      2.000000
  0.022727  0.039364  0.045392      4.000000
  0.045454  0.052485  0.045392      2.000000
  0.000000  0.052485  0.045392      1.000000
 


--------------------------------------------------------------------------------------------------------




 Dimension of arrays:
   k-points           NKPTS =     24   k-points in BZ     NKDIM =     24   number of bands    NBANDS=    300
   number of dos      NEDOS =    301   number of ions     NIONS =     72
   non local maximal  LDIM  =      6   non local SUM 2l+1 LMDIM =     18
   total plane-waves  NPLWV = 343000
   max r-space proj   IRMAX =   6047   max aug-charges    IRDMAX=  98554
   dimension x,y,z NGX =    70 NGY =   70 NGZ =   70
   dimension x,y,z NGXF=   140 NGYF=  140 NGZF=  140
   support grid    NGXF=   280 NGYF=  280 NGZF=  280
   ions per type =              36  36
 NGX,Y,Z   is equivalent  to a cutoff of  10.58, 10.58, 10.56 a.u.
 NGXF,Y,Z  is equivalent  to a cutoff of  21.16, 21.16, 21.13 a.u.


 I would recommend the setting:
   dimension x,y,z NGX =    64 NGY =   64 NGZ =   64
 SYSTEM =  MnAs hex                                
 POSCAR =  For VASP. System=    MnAs_hex           

 Startparameter for this run:
   NWRITE =      2    write-flag & timer
   PREC   = accura    normal or accurate (medium, high low for compatibility)
   ISTART =      0    job   : 0-new  1-cont  2-samecut
   ICHARG =      2    charge: 1-file 2-atom 10-const
   ISPIN  =      2    spin polarized calculation?
   LNONCOLLINEAR =      F non collinear calculations
   LSORBIT =      F    spin-orbit coupling
   INIWAV =      1    electr: 0-lowe 1-rand  2-diag
   LASPH  =      F    aspherical Exc in radial PAW
   METAGGA=      F    non-selfconsistent MetaGGA calc.

 Electronic Relaxation 1
   ENCUT  =  320.0 eV  23.52 Ry    4.85 a.u.  16.04 16.04 16.07*2*pi/ulx,y,z
   ENINI  =  320.0     initial cutoff
   ENAUG  =  500.7 eV  augmentation charge cutoff
   NELM   =    200;   NELMIN=  2; NELMDL= -5     # of ELM steps 
   EDIFF  = 0.1E-06   stopping-criterion for ELM
   LREAL  =      T    real-space projection
   NLSPLINE    = F    spline interpolate recip. space projectors
   LCOMPAT=      F    compatible to vasp.4.4
   GGA_COMPAT  = T    GGA compatible to vasp.4.4-vasp.4.6
   LMAXPAW     = -100 max onsite density
   LMAXMIX     =    2 max onsite mixed and CHGCAR
   VOSKOWN=      0    Vosko Wilk Nusair interpolation
   ROPT   =    0.00000   0.00000
 Ionic relaxation
   EDIFFG = 0.1E-05   stopping-criterion for IOM
   NSW    =      0    number of steps for IOM
   NBLOCK =      1;   KBLOCK =      1    inner block; outer block 
   IBRION =     -1    ionic relax: 0-MD 1-quasi-New 2-CG
   NFREE  =      1    steps in history (QN), initial steepest desc. (CG)
   ISIF   =      6    stress and relaxation
   IWAVPR =     10    prediction:  0-non 1-charg 2-wave 3-comb
   ISYM   =      2    0-nonsym 1-usesym 2-fastsym
   LCORR  =      T    Harris-Foulkes like correction to forces

   POTIM  = 0.5000    time-step for ionic-motion
   TEIN   =    0.0    initial temperature
   TEBEG  =    0.0;   TEEND  =   0.0 temperature during run
   SMASS  =  -3.00    Nose mass-parameter (am)
   estimated Nose-frequenzy (Omega)   =  0.10E-29 period in steps =****** mass=  -0.277E-26a.u.
   SCALEE = 1.0000    scale energy and forces
   NPACO  =    256;   APACO  = 16.0  distance and # of slots for P.C.
   PSTRESS=    0.0 pullay stress

  Mass of Ions in am
   POMASS =  54.94 74.92
  Ionic Valenz
   ZVAL   =   7.00  5.00
  Atomic Wigner-Seitz radii
   RWIGS  =  -1.00 -1.00
  virtual crystal weights 
   VCA    =   1.00  1.00
   NELECT =     432.0000    total number of electrons
   NUPDOWN=      -1.0000    fix difference up-down

 DOS related values:
   EMIN   =  10.00;   EMAX   =-10.00  energy-range for DOS
   EFERMI =   0.00
   ISMEAR =     1;   SIGMA  =   0.20  broadening in eV -4-tet -1-fermi 0-gaus

 Electronic relaxation 2 (details)
   IALGO  =     38    algorithm
   LDIAG  =      T    sub-space diagonalisation (order eigenvalues)
   LSUBROT=      F    optimize rotation matrix (better conditioning)
   TURBO    =      0    0=normal 1=particle mesh
   IRESTART =      0    0=no restart 2=restart with 2 vectors
   NREBOOT  =      0    no. of reboots
   NMIN     =      0    reboot dimension
   EREF     =   0.00    reference energy to select bands
   IMIX   =      4    mixing-type and parameters
     AMIX     =   0.40;   BMIX     =  1.00
     AMIX_MAG =   1.60;   BMIX_MAG =  1.00
     AMIN     =   0.10
     WC   =   100.;   INIMIX=   1;  MIXPRE=   1;  MAXMIX= -45

 Intra band minimization:
   WEIMIN = 0.0000     energy-eigenvalue tresh-hold
   EBREAK =  0.83E-10  absolut break condition
   DEPER  =   0.30     relativ break condition  

   TIME   =   0.40     timestep for ELM

  volume/ion in A,a.u.               =      16.03       108.19
  Fermi-wavevector in a.u.,A,eV,Ry     =   1.179759  2.229421 18.937012  1.391831
  Thomas-Fermi vector in A             =   2.316064

 Write flags
   LWAVE  =      F    write WAVECAR
   LCHARG =      F    write CHGCAR
   LVTOT  =      F    write LOCPOT, total local potential
   LVHAR  =      F    write LOCPOT, Hartree potential only
   LELF   =      F    write electronic localiz. function (ELF)
   LORBIT =      0    0 simple, 1 ext, 2 COOP (PROOUT)


 Dipole corrections
   LMONO  =      F    monopole corrections only (constant potential shift)
   LDIPOL =      F    correct potential (dipole corrections)
   IDIPOL =      0    1-x, 2-y, 3-z, 4-all directions 
   EPSILON=  1.0000000 bulk dielectric constant

 Exchange correlation treatment:
   GGA     =    --    GGA type
   LEXCH   =     8    internal setting for exchange type
   VOSKOWN=      0    Vosko Wilk Nusair interpolation
   LHFCALC =     F    Hartree Fock is set to
   LHFONE  =     F    Hartree Fock one center treatment
   AEXX    =    0.0000 exact exchange contribution

 Linear response parameters
   LEPSILON=     F    determine dielectric tensor
   LRPA    =     F    only Hartree local field effects (RPA)
   LNABLA  =     F    use nabla operator in PAW spheres
   LVEL    =     F    velocity operator in full k-point grid
   LINTERFAST=   F  fast interpolation
   KINTER  =     0    interpolate to denser k-point grid
   CSHIFT  =0.1000    complex shift for real part using Kramers Kronig
   OMEGAMAX=  -1.0    maximum frequency
   DEG_THRESHOLD= 0.2000000E-02 threshold for treating states as degnerate
   RTIME   =    0.100 relaxation time in fs

 Orbital magnetization related:
   ORBITALMAG=     F  switch on orbital magnetization
   LCHIMAG   =     F  perturbation theory with respect to B field
   DQ        =  0.001000  dq finite difference perturbation B field



--------------------------------------------------------------------------------------------------------


 Static calculation
 charge density and potential will be updated during run
 spin polarized calculation
 Variant of blocked Davidson
 Davidson routine will perform the subspace rotation
 perform sub-space diagonalisation
    after iterative eigenvector-optimisation
 modified Broyden-mixing scheme, WC =      100.0
 initial mixing is a Kerker type mixing with AMIX =  0.4000 and BMIX =      1.0000
 Hartree-type preconditioning will be used
 using additional bands           84
 real space projection scheme for non local part
 use partial core corrections
 calculate Harris-corrections to forces   (improved forces if not selfconsistent)
 use gradient corrections 
 use of overlap-Matrix (Vanderbilt PP)
 Methfessel and Paxton  Order N= 1 SIGMA  =   0.20


--------------------------------------------------------------------------------------------------------


  energy-cutoff  :      320.00
  volume of cell :     1154.33
      direct lattice vectors                 reciprocal lattice vectors
    11.000217144  0.000000000  0.000000000     0.090907296  0.052485352 -0.000000000
    -5.500108572  9.526467494  0.000000000     0.000000000  0.104970704  0.000000000
     0.000000000  0.000000000 11.015273102     0.000000000 -0.000000000  0.090783042

  length of vectors
    11.000217144 11.000217144 11.015273102     0.104970704  0.104970704  0.090783042



 k-points in units of 2pi/SCALE and weight: Automatic mesh                          
   0.00000000  0.00000000  0.00000000       0.016
   0.02272682  0.01312134  0.00000000       0.062
   0.04545365  0.02624268  0.00000000       0.031
   0.00000000  0.02624268  0.00000000       0.031
   0.02272682  0.03936401  0.00000000       0.062
   0.04545365  0.05248535  0.00000000       0.031
   0.00000000  0.05248535  0.00000000       0.016
   0.00000000  0.00000000  0.02269576       0.031
   0.02272682  0.01312134  0.02269576       0.062
   0.04545365  0.02624268  0.02269576       0.062
  -0.02272682 -0.01312134  0.02269576       0.062
   0.00000000  0.02624268  0.02269576       0.031
   0.02272682  0.03936401  0.02269576       0.062
   0.04545365  0.05248535  0.02269576       0.062
   0.00000000  0.05248535  0.02269576       0.031
   0.02272682  0.06560669  0.02269576       0.062
   0.00000000 -0.02624268  0.02269576       0.031
   0.00000000  0.00000000  0.04539152       0.016
   0.02272682  0.01312134  0.04539152       0.062
   0.04545365  0.02624268  0.04539152       0.031
   0.00000000  0.02624268  0.04539152       0.031
   0.02272682  0.03936401  0.04539152       0.062
   0.04545365  0.05248535  0.04539152       0.031
   0.00000000  0.05248535  0.04539152       0.016

 k-points in reciprocal lattice and weights: Automatic mesh                          
   0.00000000  0.00000000  0.00000000       0.016
   0.25000000  0.00000000  0.00000000       0.062
   0.50000000  0.00000000  0.00000000       0.031
   0.00000000  0.25000000  0.00000000       0.031
   0.25000000  0.25000000  0.00000000       0.062
   0.50000000  0.25000000  0.00000000       0.031
   0.00000000  0.50000000  0.00000000       0.016
   0.00000000  0.00000000  0.25000000       0.031
   0.25000000  0.00000000  0.25000000       0.062
   0.50000000  0.00000000  0.25000000       0.062
  -0.25000000  0.00000000  0.25000000       0.062
   0.00000000  0.25000000  0.25000000       0.031
   0.25000000  0.25000000  0.25000000       0.062
   0.50000000  0.25000000  0.25000000       0.062
   0.00000000  0.50000000  0.25000000       0.031
   0.25000000  0.50000000  0.25000000       0.062
   0.00000000 -0.25000000  0.25000000       0.031
   0.00000000  0.00000000  0.50000000       0.016
   0.25000000  0.00000000  0.50000000       0.062
   0.50000000  0.00000000  0.50000000       0.031
   0.00000000  0.25000000  0.50000000       0.031
   0.25000000  0.25000000  0.50000000       0.062
   0.50000000  0.25000000  0.50000000       0.031
   0.00000000  0.50000000  0.50000000       0.016

 position of ions in fractional coordinates (direct lattice) 
   0.66666667  0.66666667  0.00000000
   0.00000000  0.66666667  0.00000000
   0.33333333  0.66666667  0.00000000
   0.66666667  0.00000000  0.00000000
   0.01200000  0.00000000  0.00000000
   0.33333333  0.00000000  0.00000000
   0.66666667  0.33333333  0.00000000
   0.00000000  0.33333333  0.00000000
   0.33333333  0.33333333  0.00000000
   0.66666667  0.66666667  0.50000000
   0.00000000  0.66666667  0.50000000
   0.33333333  0.66666667  0.50000000
   0.66666667  0.00000000  0.50000000
   0.00000000  0.00000000  0.50000000
   0.33333333  0.00000000  0.50000000
   0.66666667  0.33333333  0.50000000
   0.00000000  0.33333333  0.50000000
   0.33333333  0.33333333  0.50000000
   0.66666667  0.66666667  0.75000000
   0.00000000  0.66666667  0.75000000
   0.33333333  0.66666667  0.75000000
   0.66666667  0.00000000  0.75000000
   0.00000000  0.00000000  0.75000000
   0.33333333  0.00000000  0.75000000
   0.66666667  0.33333333  0.75000000
   0.00000000  0.33333333  0.75000000
   0.33333333  0.33333333  0.75000000
   0.66666667  0.66666667  0.25000000
   0.00000000  0.66666667  0.25000000
   0.33333333  0.66666667  0.25000000
   0.66666667  0.00000000  0.25000000
   0.00000000  0.00000000  0.25000000
   0.33333333  0.00000000  0.25000000
   0.66666667  0.33333333  0.25000000
   0.00000000  0.33333333  0.25000000
   0.33333333  0.33333333  0.25000000
   0.77777778  0.55555556  0.62500000
   0.11111111  0.55555556  0.62500000
   0.44444444  0.55555556  0.62500000
   0.77777778  0.88888889  0.62500000
   0.11111111  0.88888889  0.62500000
   0.44444444  0.88888889  0.62500000
   0.77777778  0.22222222  0.62500000
   0.11111111  0.22222222  0.62500000
   0.44444444  0.22222222  0.62500000
   0.77777778  0.55555556  0.12500000
   0.11111111  0.55555556  0.12500000
   0.44444444  0.55555556  0.12500000
   0.77777778  0.88888889  0.12500000
   0.11111111  0.88888889  0.12500000
   0.44444444  0.88888889  0.12500000
   0.77777778  0.22222222  0.12500000
   0.11111111  0.22222222  0.12500000
   0.44444444  0.22222222  0.12500000
   0.55555556  0.77777778  0.87500000
   0.88888889  0.77777778  0.87500000
   0.22222222  0.77777778  0.87500000
   0.55555556  0.11111111  0.87500000
   0.88888889  0.11111111  0.87500000
   0.22222222  0.11111111  0.87500000
   0.55555556  0.44444444  0.87500000
   0.88888889  0.44444444  0.87500000
   0.22222222  0.44444444  0.87500000
   0.55555556  0.77777778  0.37500000
   0.88888889  0.77777778  0.37500000
   0.22222222  0.77777778  0.37500000
   0.55555556  0.11111111  0.37500000
   0.88888889  0.11111111  0.37500000
   0.22222222  0.11111111  0.37500000
   0.55555556  0.44444444  0.37500000
   0.88888889  0.44444444  0.37500000
   0.22222222  0.44444444  0.37500000

 position of ions in cartesian coordinates  (Angst):
   3.66673905  6.35097833  0.00000000
  -3.66673905  6.35097833  0.00000000
  -0.00000000  6.35097833  0.00000000
   7.33347810  0.00000000  0.00000000
   0.13200261  0.00000000  0.00000000
   3.66673905  0.00000000  0.00000000
   5.50010857  3.17548916  0.00000000
  -1.83336952  3.17548916  0.00000000
   1.83336952  3.17548916  0.00000000
   3.66673905  6.35097833  5.50763655
  -3.66673905  6.35097833  5.50763655
  -0.00000000  6.35097833  5.50763655
   7.33347810  0.00000000  5.50763655
   0.00000000  0.00000000  5.50763655
   3.66673905  0.00000000  5.50763655
   5.50010857  3.17548916  5.50763655
  -1.83336952  3.17548916  5.50763655
   1.83336952  3.17548916  5.50763655
   3.66673905  6.35097833  8.26145483
  -3.66673905  6.35097833  8.26145483
  -0.00000000  6.35097833  8.26145483
   7.33347810  0.00000000  8.26145483
   0.00000000  0.00000000  8.26145483
   3.66673905  0.00000000  8.26145483
   5.50010857  3.17548916  8.26145483
  -1.83336952  3.17548916  8.26145483
   1.83336952  3.17548916  8.26145483
   3.66673905  6.35097833  2.75381828
  -3.66673905  6.35097833  2.75381828
  -0.00000000  6.35097833  2.75381828
   7.33347810  0.00000000  2.75381828
   0.00000000  0.00000000  2.75381828
   3.66673905  0.00000000  2.75381828
   5.50010857  3.17548916  2.75381828
  -1.83336952  3.17548916  2.75381828
   1.83336952  3.17548916  2.75381828
   5.50010857  5.29248194  6.88454569
  -1.83336952  5.29248194  6.88454569
   1.83336952  5.29248194  6.88454569
   3.66673905  8.46797111  6.88454569
  -3.66673905  8.46797111  6.88454569
  -0.00000000  8.46797111  6.88454569
   7.33347810  2.11699278  6.88454569
  -0.00000000  2.11699278  6.88454569
   3.66673905  2.11699278  6.88454569
   5.50010857  5.29248194  1.37690914
  -1.83336952  5.29248194  1.37690914
   1.83336952  5.29248194  1.37690914
   3.66673905  8.46797111  1.37690914
  -3.66673905  8.46797111  1.37690914
  -0.00000000  8.46797111  1.37690914
   7.33347810  2.11699278  1.37690914
  -0.00000000  2.11699278  1.37690914
   3.66673905  2.11699278  1.37690914
   1.83336952  7.40947472  9.63836396
   5.50010857  7.40947472  9.63836396
  -1.83336952  7.40947472  9.63836396
   5.50010857  1.05849639  9.63836396
   9.16684762  1.05849639  9.63836396
   1.83336952  1.05849639  9.63836396
   3.66673905  4.23398555  9.63836396
   7.33347810  4.23398555  9.63836396
  -0.00000000  4.23398555  9.63836396
   1.83336952  7.40947472  4.13072741
   5.50010857  7.40947472  4.13072741
  -1.83336952  7.40947472  4.13072741
   5.50010857  1.05849639  4.13072741
   9.16684762  1.05849639  4.13072741
   1.83336952  1.05849639  4.13072741
   3.66673905  4.23398555  4.13072741
   7.33347810  4.23398555  4.13072741
  -0.00000000  4.23398555  4.13072741



--------------------------------------------------------------------------------------------------------


 k-point  1 :   0.0000 0.0000 0.0000  plane waves:   14931
 k-point  2 :   0.2500 0.0000 0.0000  plane waves:   14982
 k-point  3 :   0.5000 0.0000 0.0000  plane waves:   15008
 k-point  4 :   0.0000 0.2500 0.0000  plane waves:   14982
 k-point  5 :   0.2500 0.2500 0.0000  plane waves:   14994
 k-point  6 :   0.5000 0.2500 0.0000  plane waves:   14994
 k-point  7 :   0.0000 0.5000 0.0000  plane waves:   15008
 k-point  8 :   0.0000 0.0000 0.2500  plane waves:   14990
 k-point  9 :   0.2500 0.0000 0.2500  plane waves:   15013
 k-point 10 :   0.5000 0.0000 0.2500  plane waves:   15002
 k-point 11 :  -0.2500 0.0000 0.2500  plane waves:   15013
 k-point 12 :   0.0000 0.2500 0.2500  plane waves:   15013
 k-point 13 :   0.2500 0.2500 0.2500  plane waves:   15003
 k-point 14 :   0.5000 0.2500 0.2500  plane waves:   15003
 k-point 15 :   0.0000 0.5000 0.2500  plane waves:   15002
 k-point 16 :   0.2500 0.5000 0.2500  plane waves:   15003
 k-point 17 :   0.0000-0.2500 0.2500  plane waves:   15013
 k-point 18 :   0.0000 0.0000 0.5000  plane waves:   14984
 k-point 19 :   0.2500 0.0000 0.5000  plane waves:   15008
 k-point 20 :   0.5000 0.0000 0.5000  plane waves:   15044
 k-point 21 :   0.0000 0.2500 0.5000  plane waves:   15008
 k-point 22 :   0.2500 0.2500 0.5000  plane waves:   15006
 k-point 23 :   0.5000 0.2500 0.5000  plane waves:   15006
 k-point 24 :   0.0000 0.5000 0.5000  plane waves:   15044

 maximum and minimum number of plane-waves per node :      3774     3707

 maximum number of plane-waves:     15044
 maximum index in each direction: 
   IXMAX=   16   IYMAX=   16   IZMAX=   16
   IXMIN=  -16   IYMIN=  -16   IZMIN=  -16

 NGX is ok and might be reduce to  66
 NGY is ok and might be reduce to  66
 NGZ is ok and might be reduce to  66

 real space projection operators:
  total allocation   :      41363.72 KBytes
  max/ min on nodes  :      10762.53       9932.80


 parallel 3D FFT for wavefunctions:
    minimum data exchange during FFTs selected (reduces bandwidth)
 parallel 3D FFT for charge:
    minimum data exchange during FFTs selected (reduces bandwidth)


 total amount of memory used by VASP on root node   334140. kBytes
========================================================================

   base      :      30000. kBytes
   nonlr-proj:      20521. kBytes
   fftplans  :      28296. kBytes
   grid      :      21369. kBytes
   one-center:        559. kBytes
   wavefun   :     233395. kBytes

     INWAV:  cpu time    0.0000: real time    0.0003
 Broyden mixing: mesh for mixing (old mesh)
   NGX = 33   NGY = 33   NGZ = 33
  (NGX  =140   NGY  =140   NGZ  =140)
  gives a total of  35937 points

 initial charge density was supplied:
 charge density of overlapping atoms calculated
 number of electron     432.0000000 magnetization      36.0000000
 keeping initial charge density in first step


--------------------------------------------------------------------------------------------------------


 Maximum index for non-local projection operator         1589
 Maximum index for augmentation-charges         6365 (set IRDMAX)


--------------------------------------------------------------------------------------------------------


 First call to EWALD:  gamma=   0.169
 Maximum number of real-space cells 3x 3x 3
 Maximum number of reciprocal cells 3x 3x 3

 FEWALD executed in parallel
    FEWALD:  cpu time    0.0280: real time    0.0268


----------------------------------------- Iteration    1(   1)  ---------------------------------------


    POTLOK:  cpu time    1.2880: real time    1.2911
    SETDIJ:  cpu time    1.7360: real time    1.7417
     EDDAV:  cpu time  799.3640: real time  800.9083
       DOS:  cpu time    0.0440: real time    0.0435
    --------------------------------------------
      LOOP:  cpu time  802.4360: real time  803.9893

 eigenvalue-minimisations  : 28992
 total energy-change (2. order) : 0.3253928E+04  (-0.1146793E+05)
 number of electron     432.0000000 magnetization      36.0000000
 augmentation part      432.0000000 magnetization      36.0000000

 Free energy of the ion-electron system (eV)
  ---------------------------------------------------
  alpha Z        PSCENC =      1700.89082154
  Ewald energy   TEWEN  =    -21122.02101893
  -Hartree energ DENC   =     -3903.25098751
  -exchange      EXHF   =         0.00000000
  -V(xc)+E(xc)   XCENC  =      -848.10237491
  PAW double counting   =     14295.91323732   -12980.49464661
  entropy T*S    EENTRO =         0.00149155
  eigenvalues    EBANDS =      4981.78200132
  atomic energy  EATOM  =     21129.20924906
  Solvation  Ediel_sol  =         0.00000000
  ---------------------------------------------------
  free energy    TOTEN  =      3253.92777284 eV

  energy without entropy =     3253.92628129  energy(sigma->0) =     3253.92727566


--------------------------------------------------------------------------------------------------------




----------------------------------------- Iteration    1(   2)  ---------------------------------------


     EDDAV:  cpu time  790.1880: real time  791.6627
       DOS:  cpu time    0.0560: real time    0.0531
    --------------------------------------------
      LOOP:  cpu time  790.2560: real time  791.7381

 eigenvalue-minimisations  : 28800
 total energy-change (2. order) :-0.3336778E+04  (-0.3205291E+04)
 number of electron     432.0000000 magnetization      36.0000000
 augmentation part      432.0000000 magnetization      36.0000000

 Free energy of the ion-electron system (eV)
  ---------------------------------------------------
  alpha Z        PSCENC =      1700.89082154
  Ewald energy   TEWEN  =    -21122.02101893
  -Hartree energ DENC   =     -3903.25098751
  -exchange      EXHF   =         0.00000000
  -V(xc)+E(xc)   XCENC  =      -848.10237491
  PAW double counting   =     14295.91323732   -12980.49464661
  entropy T*S    EENTRO =        -0.00188361
  eigenvalues    EBANDS =      1645.00690859
  atomic energy  EATOM  =     21129.20924906
  Solvation  Ediel_sol  =         0.00000000
  ---------------------------------------------------
  free energy    TOTEN  =       -82.85069504 eV

  energy without entropy =      -82.84881143  energy(sigma->0) =      -82.85006717


--------------------------------------------------------------------------------------------------------




----------------------------------------- Iteration    1(   3)  ---------------------------------------


     EDDAV:  cpu time 1074.8680: real time 1076.6390
       DOS:  cpu time    0.0520: real time    0.0550
    --------------------------------------------
      LOOP:  cpu time 1074.9760: real time 1076.7727

 eigenvalue-minimisations  : 42496
 total energy-change (2. order) :-0.4192222E+03  (-0.3757583E+03)
 number of electron     432.0000000 magnetization      36.0000000
 augmentation part      432.0000000 magnetization      36.0000000

 Free energy of the ion-electron system (eV)
  ---------------------------------------------------
  alpha Z        PSCENC =      1700.89082154
  Ewald energy   TEWEN  =    -21122.02101893
  -Hartree energ DENC   =     -3903.25098751
  -exchange      EXHF   =         0.00000000
  -V(xc)+E(xc)   XCENC  =      -848.10237491
  PAW double counting   =     14295.91323732   -12980.49464661
  entropy T*S    EENTRO =        -0.06754163
  eigenvalues    EBANDS =      1225.85041383
  atomic energy  EATOM  =     21129.20924906
  Solvation  Ediel_sol  =         0.00000000
  ---------------------------------------------------
  free energy    TOTEN  =      -502.07284783 eV

  energy without entropy =     -502.00530620  energy(sigma->0) =     -502.05033395


--------------------------------------------------------------------------------------------------------




----------------------------------------- Iteration    1(   4)  ---------------------------------------


     EDDAV:  cpu time 1154.5920: real time 1156.6109
       DOS:  cpu time    0.0520: real time    0.0517
    --------------------------------------------
      LOOP:  cpu time 1154.7200: real time 1156.7547

 eigenvalue-minimisations  : 46264
 total energy-change (2. order) :-0.4195387E+02  (-0.3717253E+02)
 number of electron     432.0000000 magnetization      36.0000000
 augmentation part      432.0000000 magnetization      36.0000000

 Free energy of the ion-electron system (eV)
  ---------------------------------------------------
  alpha Z        PSCENC =      1700.89082154
  Ewald energy   TEWEN  =    -21122.02101893
  -Hartree energ DENC   =     -3903.25098751
  -exchange      EXHF   =         0.00000000
  -V(xc)+E(xc)   XCENC  =      -848.10237491
  PAW double counting   =     14295.91323732   -12980.49464661
  entropy T*S    EENTRO =        -0.05666653
  eigenvalues    EBANDS =      1183.88566536
  atomic energy  EATOM  =     21129.20924906
  Solvation  Ediel_sol  =         0.00000000
  ---------------------------------------------------
  free energy    TOTEN  =      -544.02672119 eV

  energy without entropy =     -543.97005466  energy(sigma->0) =     -544.00783235


--------------------------------------------------------------------------------------------------------




----------------------------------------- Iteration    1(   5)  ---------------------------------------


     EDDAV:  cpu time 1210.8040: real time 1212.7951
       DOS:  cpu time    0.0520: real time    0.0543
    CHARGE:  cpu time   42.2400: real time   42.3245
    MIXING:  cpu time    0.1040: real time    0.1051
    --------------------------------------------
      LOOP:  cpu time 1253.2840: real time 1255.3828

 eigenvalue-minimisations  : 48840
 total energy-change (2. order) :-0.2882205E+01  (-0.2719908E+01)
 number of electron     432.0000001 magnetization      39.8157158
 augmentation part       60.2091738 magnetization      21.5424408

 Broyden mixing:
  rms(total) = 0.61288E+01    rms(broyden)= 0.61272E+01
  rms(prec ) = 0.79571E+01
  weight for this iteration     100.00

 Free energy of the ion-electron system (eV)
  ---------------------------------------------------
  alpha Z        PSCENC =      1700.89082154
  Ewald energy   TEWEN  =    -21122.02101893
  -Hartree energ DENC   =     -3903.25098751
  -exchange      EXHF   =         0.00000000
  -V(xc)+E(xc)   XCENC  =      -848.10237491
  PAW double counting   =     14295.91323732   -12980.49464661
  entropy T*S    EENTRO =        -0.05230975
  eigenvalues    EBANDS =      1180.99910319
  atomic energy  EATOM  =     21129.20924906
  Solvation  Ediel_sol  =         0.00000000
  ---------------------------------------------------
  free energy    TOTEN  =      -546.90892658 eV

  energy without entropy =     -546.85661683  energy(sigma->0) =     -546.89149000


--------------------------------------------------------------------------------------------------------




----------------------------------------- Iteration    1(   6)  ---------------------------------------


    POTLOK:  cpu time    1.4960: real time    1.4993
    SETDIJ:  cpu time    2.1080: real time    2.1143
     EDDAV:  cpu time 1109.2440: real time 1111.3158
       DOS:  cpu time    0.0520: real time    0.0532
    CHARGE:  cpu time   41.2360: real time   41.3139
    MIXING:  cpu time    0.1160: real time    0.1154
    --------------------------------------------
      LOOP:  cpu time 1154.2560: real time 1156.4290

 eigenvalue-minimisations  : 43672
 total energy-change (2. order) :-0.6590379E+02  (-0.1402438E+03)
 number of electron     432.0000004 magnetization      39.6285071
 augmentation part      144.3815572 magnetization      33.8302553

 Broyden mixing:
  rms(total) = 0.92783E+01    rms(broyden)= 0.92771E+01
  rms(prec ) = 0.12493E+02
  weight for this iteration     100.00

 eigenvalues of (default mixing * dielectric matrix)
  average eigenvalue GAMMA=   0.4140
  0.4140

 Free energy of the ion-electron system (eV)
  ---------------------------------------------------
  alpha Z        PSCENC =      1700.89082154
  Ewald energy   TEWEN  =    -21122.02101893
  -Hartree energ DENC   =     -3181.19680625
  -exchange      EXHF   =         0.00000000
  -V(xc)+E(xc)   XCENC  =      -859.98130807
  PAW double counting   =     13313.81495827   -11917.46868925
  entropy T*S    EENTRO =        -0.22994186
  eigenvalues    EBANDS =       324.17001902
  atomic energy  EATOM  =     21129.20924906
  Solvation  Ediel_sol  =         0.00000000
  ---------------------------------------------------
  free energy    TOTEN  =      -612.81271647 eV

  energy without entropy =     -612.58277461  energy(sigma->0) =     -612.73606918


--------------------------------------------------------------------------------------------------------




----------------------------------------- Iteration    1(   7)  ---------------------------------------


    POTLOK:  cpu time    1.3880: real time    1.3910
    SETDIJ:  cpu time    2.1400: real time    2.1423
     EDDAV:  cpu time 1144.1360: real time 1146.2224
       DOS:  cpu time    0.0520: real time    0.0558
    CHARGE:  cpu time   41.0800: real time   41.1541
    MIXING:  cpu time    0.1320: real time    0.1303
    --------------------------------------------
      LOOP:  cpu time 1188.9280: real time 1191.1095

 eigenvalue-minimisations  : 45364
 total energy-change (2. order) : 0.1149178E+03  (-0.6128293E+02)
 number of electron     432.0000002 magnetization      39.9819916
 augmentation part       86.5716859 magnetization      19.8391682

 Broyden mixing:
  rms(total) = 0.32475E+01    rms(broyden)= 0.32455E+01
  rms(prec ) = 0.40355E+01
  weight for this iteration     100.00

 eigenvalues of (default mixing * dielectric matrix)
  average eigenvalue GAMMA=   0.2904
  0.3925  0.1883

 Free energy of the ion-electron system (eV)
  ---------------------------------------------------
  alpha Z        PSCENC =      1700.89082154
  Ewald energy   TEWEN  =    -21122.02101893
  -Hartree energ DENC   =     -3618.30555114
  -exchange      EXHF   =         0.00000000
  -V(xc)+E(xc)   XCENC  =      -845.76182473
  PAW double counting   =     14403.37634007   -13083.75854477
  entropy T*S    EENTRO =         0.01420940
  eigenvalues    EBANDS =       938.46140395
  atomic energy  EATOM  =     21129.20924906
  Solvation  Ediel_sol  =         0.00000000
  ---------------------------------------------------
  free energy    TOTEN  =      -497.89491555 eV

  energy without entropy =     -497.90912495  energy(sigma->0) =     -497.89965202


--------------------------------------------------------------------------------------------------------




----------------------------------------- Iteration    1(   8)  ---------------------------------------


    POTLOK:  cpu time    1.6440: real time    1.6453
    SETDIJ:  cpu time    2.1040: real time    2.1101
     EDDAV:  cpu time 1034.8960: real time 1036.8229
       DOS:  cpu time    0.0520: real time    0.0518
    CHARGE:  cpu time   45.3680: real time   45.4399
    MIXING:  cpu time    0.1200: real time    0.1201
    --------------------------------------------
      LOOP:  cpu time 1084.1840: real time 1086.2108

 eigenvalue-minimisations  : 40392
 total energy-change (2. order) :-0.3909422E+01  (-0.5066956E+01)
 number of electron     432.0000002 magnetization      40.0656331
 augmentation part       84.3561033 magnetization      19.1241121

 Broyden mixing:
  rms(total) = 0.29028E+01    rms(broyden)= 0.29028E+01
  rms(prec ) = 0.34336E+01
  weight for this iteration     100.00

 eigenvalues of (default mixing * dielectric matrix)
  average eigenvalue GAMMA=   0.4122
  0.7834  0.3674  0.0858

 Free energy of the ion-electron system (eV)
  ---------------------------------------------------
  alpha Z        PSCENC =      1700.89082154
  Ewald energy   TEWEN  =    -21122.02101893
  -Hartree energ DENC   =     -3616.99879061
  -exchange      EXHF   =         0.00000000
  -V(xc)+E(xc)   XCENC  =      -845.31069022
  PAW double counting   =     14412.31669387   -13093.26587652
  entropy T*S    EENTRO =         0.02960989
  eigenvalues    EBANDS =       933.34566475
  atomic energy  EATOM  =     21129.20924906
  Solvation  Ediel_sol  =         0.00000000
  ---------------------------------------------------
  free energy    TOTEN  =      -501.80433717 eV

  energy without entropy =     -501.83394706  energy(sigma->0) =     -501.81420713


--------------------------------------------------------------------------------------------------------




----------------------------------------- Iteration    1(   9)  ---------------------------------------


    POTLOK:  cpu time    1.5480: real time    1.5478
    SETDIJ:  cpu time    2.1200: real time    2.1253
     EDDAV:  cpu time 1187.9280: real time 1190.1284
       DOS:  cpu time    0.0560: real time    0.0542
    CHARGE:  cpu time   43.5400: real time   43.6113
    MIXING:  cpu time    0.1120: real time    0.1123
    --------------------------------------------
      LOOP:  cpu time 1235.3040: real time 1237.5853

 eigenvalue-minimisations  : 47648
 total energy-change (2. order) :-0.1312811E+00  (-0.1307494E+00)
 number of electron     432.0000002 magnetization      41.8007669
 augmentation part       84.1055470 magnetization      20.8402847

 Broyden mixing:
  rms(total) = 0.29115E+01    rms(broyden)= 0.29115E+01
  rms(prec ) = 0.34526E+01
  weight for this iteration     100.00

 eigenvalues of (default mixing * dielectric matrix)
  average eigenvalue GAMMA=   0.3229
  0.4068  0.4068  0.3809  0.0973

 Free energy of the ion-electron system (eV)
  ---------------------------------------------------
  alpha Z        PSCENC =      1700.89082154
  Ewald energy   TEWEN  =    -21122.02101893
  -Hartree energ DENC   =     -3616.53125507
  -exchange      EXHF   =         0.00000000
  -V(xc)+E(xc)   XCENC  =      -845.21719209
  PAW double counting   =     14413.61086940   -13094.51937268
  entropy T*S    EENTRO =         0.02979668
  eigenvalues    EBANDS =       932.61248386
  atomic energy  EATOM  =     21129.20924906
  Solvation  Ediel_sol  =         0.00000000
  ---------------------------------------------------
  free energy    TOTEN  =      -501.93561823 eV

  energy without entropy =     -501.96541491  energy(sigma->0) =     -501.94555046


--------------------------------------------------------------------------------------------------------




----------------------------------------- Iteration    1(  10)  ---------------------------------------


    POTLOK:  cpu time    1.5520: real time    1.5515
    SETDIJ:  cpu time    2.1200: real time    2.1259
     EDDAV:  cpu time 1250.6680: real time 1252.8415
       DOS:  cpu time    0.0520: real time    0.0544
    CHARGE:  cpu time   45.7640: real time   45.8462
    MIXING:  cpu time    0.1160: real time    0.1160
    --------------------------------------------
      LOOP:  cpu time 1300.2720: real time 1302.5410

 eigenvalue-minimisations  : 51040
 total energy-change (2. order) :-0.2982962E+01  (-0.6960848E+00)
 number of electron     432.0000002 magnetization      43.7798426
 augmentation part       86.9419462 magnetization      23.5835265

 Broyden mixing:
  rms(total) = 0.35351E+01    rms(broyden)= 0.35349E+01
  rms(prec ) = 0.46255E+01
  weight for this iteration     100.00

 eigenvalues of (default mixing * dielectric matrix)
  average eigenvalue GAMMA=   0.3891
  0.6769  0.6769  0.3816  0.1051  0.1051

 Free energy of the ion-electron system (eV)
  ---------------------------------------------------
  alpha Z        PSCENC =      1700.89082154
  Ewald energy   TEWEN  =    -21122.02101893
  -Hartree energ DENC   =     -3596.10543057
  -exchange      EXHF   =         0.00000000
  -V(xc)+E(xc)   XCENC  =      -844.53136267
  PAW double counting   =     14426.83438334   -13106.46603182
  entropy T*S    EENTRO =         0.01396560
  eigenvalues    EBANDS =       907.25684436
  atomic energy  EATOM  =     21129.20924906
  Solvation  Ediel_sol  =         0.00000000
  ---------------------------------------------------
  free energy    TOTEN  =      -504.91858008 eV

  energy without entropy =     -504.93254568  energy(sigma->0) =     -504.92323528


--------------------------------------------------------------------------------------------------------




----------------------------------------- Iteration    1(  11)  ---------------------------------------


    POTLOK:  cpu time    1.5280: real time    1.5309
    SETDIJ:  cpu time    2.1000: real time    2.1028
     EDDAV:  cpu time 1270.8280: real time 1273.1468
       DOS:  cpu time    0.0520: real time    0.0538
    CHARGE:  cpu time   46.1120: real time   46.1981
    MIXING:  cpu time    0.1440: real time    0.1442
    --------------------------------------------
      LOOP:  cpu time 1320.7640: real time 1323.1893

 eigenvalue-minimisations  : 51928
 total energy-change (2. order) : 0.2692557E+01  (-0.1114888E+01)
 number of electron     432.0000002 magnetization      45.6003619
 augmentation part       91.7684963 magnetization      25.6469378

 Broyden mixing:
  rms(total) = 0.27289E+01    rms(broyden)= 0.27286E+01
  rms(prec ) = 0.32882E+01
  weight for this iteration     100.00

 eigenvalues of (default mixing * dielectric matrix)
  average eigenvalue GAMMA=   0.4698
  1.0097  1.0097  0.3443  0.2259  0.1374  0.0918

 Free energy of the ion-electron system (eV)
  ---------------------------------------------------
  alpha Z        PSCENC =      1700.89082154
  Ewald energy   TEWEN  =    -21122.02101893
  -Hartree energ DENC   =     -3565.64170593
  -exchange      EXHF   =         0.00000000
  -V(xc)+E(xc)   XCENC  =      -845.63538611
  PAW double counting   =     14436.50640286   -13112.83038549
  entropy T*S    EENTRO =         0.03607588
  eigenvalues    EBANDS =       877.25992426
  atomic energy  EATOM  =     21129.20924906
  Solvation  Ediel_sol  =         0.00000000
  ---------------------------------------------------
  free energy    TOTEN  =      -502.22602286 eV

  energy without entropy =     -502.26209874  energy(sigma->0) =     -502.23804815


--------------------------------------------------------------------------------------------------------




----------------------------------------- Iteration    1(  12)  ---------------------------------------


    POTLOK:  cpu time    1.5320: real time    1.5335
    SETDIJ:  cpu time    2.0880: real time    2.0923
     EDDAV:  cpu time 1216.1000: real time 1218.3101
       DOS:  cpu time    0.0520: real time    0.0517
    CHARGE:  cpu time   46.2400: real time   46.3279
    MIXING:  cpu time    0.1280: real time    0.1267
    --------------------------------------------
      LOOP:  cpu time 1266.1440: real time 1268.4483

 eigenvalue-minimisations  : 49336
 total energy-change (2. order) :-0.2041085E+01  (-0.4573616E+00)
 number of electron     432.0000002 magnetization      57.4451166
 augmentation part       93.9745275 magnetization      37.8629481

 Broyden mixing:
  rms(total) = 0.28412E+01    rms(broyden)= 0.28411E+01
  rms(prec ) = 0.35349E+01
  weight for this iteration     100.00

 eigenvalues of (default mixing * dielectric matrix)
  average eigenvalue GAMMA=   0.5370
  1.3814  1.3814  0.3316  0.3316  0.1408  0.0961  0.0961

 Free energy of the ion-electron system (eV)
  ---------------------------------------------------
  alpha Z        PSCENC =      1700.89082154
  Ewald energy   TEWEN  =    -21122.02101893
  -Hartree energ DENC   =     -3557.26114468
  -exchange      EXHF   =         0.00000000
  -V(xc)+E(xc)   XCENC  =      -845.02794986
  PAW double counting   =     14465.50371756   -13141.02048218
  entropy T*S    EENTRO =         0.03883018
  eigenvalues    EBANDS =       865.42086956
  atomic energy  EATOM  =     21129.20924906
  Solvation  Ediel_sol  =         0.00000000
  ---------------------------------------------------
  free energy    TOTEN  =      -504.26710775 eV

  energy without entropy =     -504.30593793  energy(sigma->0) =     -504.28005114


--------------------------------------------------------------------------------------------------------




----------------------------------------- Iteration    1(  13)  ---------------------------------------


    POTLOK:  cpu time    1.5280: real time    1.5309
    SETDIJ:  cpu time    2.1000: real time    2.1039
     EDDAV:  cpu time 1116.0400: real time 1118.0160
       DOS:  cpu time    0.0520: real time    0.0506
    CHARGE:  cpu time   46.2400: real time   46.3200
    MIXING:  cpu time    0.1120: real time    0.1136
    --------------------------------------------
      LOOP:  cpu time 1166.0720: real time 1168.1417

 eigenvalue-minimisations  : 44580
 total energy-change (2. order) :-0.1803023E+02  (-0.3805227E+01)
 number of electron     432.0000003 magnetization      61.6980102
 augmentation part      105.1350456 magnetization      43.0508499

 Broyden mixing:
  rms(total) = 0.36086E+01    rms(broyden)= 0.36083E+01
  rms(prec ) = 0.47723E+01
  weight for this iteration     100.00

 eigenvalues of (default mixing * dielectric matrix)
  average eigenvalue GAMMA=   0.5809
  1.6218  1.6218  0.3629  0.3629  0.3584  0.1131  0.1131  0.0932

 Free energy of the ion-electron system (eV)
  ---------------------------------------------------
  alpha Z        PSCENC =      1700.89082154
  Ewald energy   TEWEN  =    -21122.02101893
  -Hartree energ DENC   =     -3517.09939336
  -exchange      EXHF   =         0.00000000
  -V(xc)+E(xc)   XCENC  =      -838.05417741
  PAW double counting   =     14674.81939675   -13348.06837773
  entropy T*S    EENTRO =         0.05899747
  eigenvalues    EBANDS =       797.96716782
  atomic energy  EATOM  =     21129.20924906
  Solvation  Ediel_sol  =         0.00000000
  ---------------------------------------------------
  free energy    TOTEN  =      -522.29733479 eV

  energy without entropy =     -522.35633227  energy(sigma->0) =     -522.31700062


--------------------------------------------------------------------------------------------------------




----------------------------------------- Iteration    1(  14)  ---------------------------------------


    POTLOK:  cpu time    1.5440: real time    1.5450
    SETDIJ:  cpu time    2.1320: real time    2.1371
     EDDAV:  cpu time 1123.4560: real time 1125.5375
       DOS:  cpu time    0.0520: real time    0.0517
    CHARGE:  cpu time   46.1120: real time   46.1997
    MIXING:  cpu time    0.1480: real time    0.1455
    --------------------------------------------
      LOOP:  cpu time 1173.4440: real time 1175.6225

 eigenvalue-minimisations  : 44956
 total energy-change (2. order) :-0.6600616E+01  (-0.8453340E+00)
 number of electron     432.0000003 magnetization      72.3300110
 augmentation part      107.5620952 magnetization      53.9773184

 Broyden mixing:
  rms(total) = 0.40724E+01    rms(broyden)= 0.40721E+01
  rms(prec ) = 0.55432E+01
  weight for this iteration     100.00

 eigenvalues of (default mixing * dielectric matrix)
  average eigenvalue GAMMA=   0.6164
  1.8422  1.8422  0.5155  0.5155  0.4176  0.1153  0.1153  0.0920  0.0920

 Free energy of the ion-electron system (eV)
  ---------------------------------------------------
  alpha Z        PSCENC =      1700.89082154
  Ewald energy   TEWEN  =    -21122.02101893
  -Hartree energ DENC   =     -3511.22548668
  -exchange      EXHF   =         0.00000000
  -V(xc)+E(xc)   XCENC  =      -834.03076343
  PAW double counting   =     14753.74841774   -13428.37401512
  entropy T*S    EENTRO =         0.02398016
  eigenvalues    EBANDS =       782.88086478
  atomic energy  EATOM  =     21129.20924906
  Solvation  Ediel_sol  =         0.00000000
  ---------------------------------------------------
  free energy    TOTEN  =      -528.89795088 eV

  energy without entropy =     -528.92193104  energy(sigma->0) =     -528.90594426


--------------------------------------------------------------------------------------------------------




----------------------------------------- Iteration    1(  15)  ---------------------------------------


    POTLOK:  cpu time    1.5720: real time    1.5741
    SETDIJ:  cpu time    2.0960: real time    2.0993
     EDDAV:  cpu time 1186.6200: real time 1188.7262
       DOS:  cpu time    0.0520: real time    0.0529
    CHARGE:  cpu time   42.0200: real time   42.0973
    MIXING:  cpu time    0.1440: real time    0.1431
    --------------------------------------------
      LOOP:  cpu time 1232.5040: real time 1234.6988

 eigenvalue-minimisations  : 47928
 total energy-change (2. order) :-0.6376270E+01  (-0.6541774E+00)
 number of electron     432.0000003 magnetization      74.1353978
 augmentation part      109.1049711 magnetization      54.3011479

 Broyden mixing:
  rms(total) = 0.40495E+01    rms(broyden)= 0.40491E+01
  rms(prec ) = 0.54320E+01
  weight for this iteration     100.00

 eigenvalues of (default mixing * dielectric matrix)
  average eigenvalue GAMMA=   0.5680
  1.8427  1.8427  0.5248  0.5248  0.4012  0.1328  0.1328  0.0991  0.0991  0.0801

 Free energy of the ion-electron system (eV)
  ---------------------------------------------------
  alpha Z        PSCENC =      1700.89082154
  Ewald energy   TEWEN  =    -21122.02101893
  -Hartree energ DENC   =     -3508.81175418
  -exchange      EXHF   =         0.00000000
  -V(xc)+E(xc)   XCENC  =      -821.05124429
  PAW double counting   =     14945.52044991   -13628.41140289
  entropy T*S    EENTRO =         0.04645414
  eigenvalues    EBANDS =       769.35422489
  atomic energy  EATOM  =     21129.20924906
  Solvation  Ediel_sol  =         0.00000000
  ---------------------------------------------------
  free energy    TOTEN  =      -535.27422075 eV

  energy without entropy =     -535.32067488  energy(sigma->0) =     -535.28970546


--------------------------------------------------------------------------------------------------------




----------------------------------------- Iteration    1(  16)  ---------------------------------------


    POTLOK:  cpu time    1.5600: real time    1.5619
    SETDIJ:  cpu time    2.1160: real time    2.1177
     EDDAV:  cpu time 1148.1840: real time 1150.3339
       DOS:  cpu time    0.0560: real time    0.0545
    CHARGE:  cpu time   43.9960: real time   44.0821
    MIXING:  cpu time    0.1120: real time    0.1113
    --------------------------------------------
      LOOP:  cpu time 1196.0240: real time 1198.2680

 eigenvalue-minimisations  : 45888
 total energy-change (2. order) : 0.6288089E+00  (-0.1663203E+00)
 number of electron     432.0000003 magnetization      75.7041718
 augmentation part      108.9956949 magnetization      55.6839156

 Broyden mixing:
  rms(total) = 0.38407E+01    rms(broyden)= 0.38406E+01
  rms(prec ) = 0.51068E+01
  weight for this iteration     100.00

 eigenvalues of (default mixing * dielectric matrix)
  average eigenvalue GAMMA=   0.5494
  1.8223  1.8223  0.5864  0.5864  0.3390  0.3390  0.1451  0.1116  0.1116  0.0940
  0.0856

 Free energy of the ion-electron system (eV)
  ---------------------------------------------------
  alpha Z        PSCENC =      1700.89082154
  Ewald energy   TEWEN  =    -21122.02101893
  -Hartree energ DENC   =     -3508.24095640
  -exchange      EXHF   =         0.00000000
  -V(xc)+E(xc)   XCENC  =      -818.61262532
  PAW double counting   =     14969.38690002   -13654.20144786
  entropy T*S    EENTRO =         0.06464869
  eigenvalues    EBANDS =       768.87901739
  atomic energy  EATOM  =     21129.20924906
  Solvation  Ediel_sol  =         0.00000000
  ---------------------------------------------------
  free energy    TOTEN  =      -534.64541181 eV

  energy without entropy =     -534.71006050  energy(sigma->0) =     -534.66696137


--------------------------------------------------------------------------------------------------------




----------------------------------------- Iteration    1(  17)  ---------------------------------------


    POTLOK:  cpu time    1.5520: real time    1.5538
    SETDIJ:  cpu time    2.1120: real time    2.1151
     EDDAV:  cpu time 1154.0800: real time 1156.0875
       DOS:  cpu time    0.0480: real time    0.0490
    CHARGE:  cpu time   46.5040: real time   46.5877
    MIXING:  cpu time    0.1360: real time    0.1343
    --------------------------------------------
      LOOP:  cpu time 1204.4320: real time 1206.5336

 eigenvalue-minimisations  : 46144
 total energy-change (2. order) : 0.1090378E+01  (-0.4389877E-01)
 number of electron     432.0000003 magnetization      76.3261265
 augmentation part      108.5844259 magnetization      56.0622390

 Broyden mixing:
  rms(total) = 0.37288E+01    rms(broyden)= 0.37288E+01
  rms(prec ) = 0.49652E+01
  weight for this iteration     100.00

 eigenvalues of (default mixing * dielectric matrix)
  average eigenvalue GAMMA=   0.5140
  1.8182  1.8182  0.5971  0.5971  0.3003  0.3003  0.2336  0.1154  0.1154  0.0961
  0.0961  0.0804

 Free energy of the ion-electron system (eV)
  ---------------------------------------------------
  alpha Z        PSCENC =      1700.89082154
  Ewald energy   TEWEN  =    -21122.02101893
  -Hartree energ DENC   =     -3505.64828567
  -exchange      EXHF   =         0.00000000
  -V(xc)+E(xc)   XCENC  =      -816.70073432
  PAW double counting   =     14975.25612580   -13662.12966303
  entropy T*S    EENTRO =         0.06062899
  eigenvalues    EBANDS =       767.52784302
  atomic energy  EATOM  =     21129.20924906
  Solvation  Ediel_sol  =         0.00000000
  ---------------------------------------------------
  free energy    TOTEN  =      -533.55503354 eV

  energy without entropy =     -533.61566253  energy(sigma->0) =     -533.57524321


--------------------------------------------------------------------------------------------------------




----------------------------------------- Iteration    1(  18)  ---------------------------------------


    POTLOK:  cpu time    1.5320: real time    1.5342
    SETDIJ:  cpu time    2.1000: real time    2.1045
     EDDAV:  cpu time 1075.0120: real time 1076.8914
       DOS:  cpu time    0.0520: real time    0.0507
    CHARGE:  cpu time   45.8800: real time   45.9612
    MIXING:  cpu time    0.1120: real time    0.1138
    --------------------------------------------
      LOOP:  cpu time 1124.6880: real time 1126.6624

 eigenvalue-minimisations  : 43184
 total energy-change (2. order) : 0.8473485E+00  (-0.1435759E-01)
 number of electron     432.0000003 magnetization      78.6235609
 augmentation part      108.2472126 magnetization      58.2385180

 Broyden mixing:
  rms(total) = 0.36574E+01    rms(broyden)= 0.36574E+01
  rms(prec ) = 0.48634E+01
  weight for this iteration     100.00

 eigenvalues of (default mixing * dielectric matrix)
  average eigenvalue GAMMA=   0.5598
  1.8275  1.8275  0.8186  0.8186  0.4565  0.4565  0.4197  0.1288  0.1288  0.1085
  0.1085  0.0952  0.0834

 Free energy of the ion-electron system (eV)
  ---------------------------------------------------
  alpha Z        PSCENC =      1700.89082154
  Ewald energy   TEWEN  =    -21122.02101893
  -Hartree energ DENC   =     -3504.71140558
  -exchange      EXHF   =         0.00000000
  -V(xc)+E(xc)   XCENC  =      -815.91605333
  PAW double counting   =     14975.27122543   -13663.13307533
  entropy T*S    EENTRO =         0.06363352
  eigenvalues    EBANDS =       767.63893856
  atomic energy  EATOM  =     21129.20924906
  Solvation  Ediel_sol  =         0.00000000
  ---------------------------------------------------
  free energy    TOTEN  =      -532.70768506 eV

  energy without entropy =     -532.77131858  energy(sigma->0) =     -532.72889623


--------------------------------------------------------------------------------------------------------




----------------------------------------- Iteration    1(  19)  ---------------------------------------


    POTLOK:  cpu time    1.4960: real time    1.5017
    SETDIJ:  cpu time    2.0280: real time    2.0317
     EDDAV:  cpu time 1185.9600: real time 1188.0266
       DOS:  cpu time    0.0520: real time    0.0521
    CHARGE:  cpu time   45.7160: real time   45.7854
    MIXING:  cpu time    0.1160: real time    0.1175
    --------------------------------------------
      LOOP:  cpu time 1235.3720: real time 1237.5211

 eigenvalue-minimisations  : 49808
 total energy-change (2. order) : 0.2679089E+01  (-0.5471440E-01)
 number of electron     432.0000003 magnetization      81.6029130
 augmentation part      107.1142751 magnetization      60.6155460

 Broyden mixing:
  rms(total) = 0.34427E+01    rms(broyden)= 0.34427E+01
  rms(prec ) = 0.45733E+01
  weight for this iteration     100.00

 eigenvalues of (default mixing * dielectric matrix)
  average eigenvalue GAMMA=   0.5769
  1.8467  1.8467  1.0473  1.0473  0.4888  0.4888  0.4201  0.2281  0.1438  0.1205
  0.1145  0.1041  0.0958  0.0833

 Free energy of the ion-electron system (eV)
  ---------------------------------------------------
  alpha Z        PSCENC =      1700.89082154
  Ewald energy   TEWEN  =    -21122.02101893
  -Hartree energ DENC   =     -3501.20823004
  -exchange      EXHF   =         0.00000000
  -V(xc)+E(xc)   XCENC  =      -813.07394755
  PAW double counting   =     14972.93135727   -13664.12675385
  entropy T*S    EENTRO =         0.06821118
  eigenvalues    EBANDS =       767.30171547
  atomic energy  EATOM  =     21129.20924906
  Solvation  Ediel_sol  =         0.00000000
  ---------------------------------------------------
  free energy    TOTEN  =      -530.02859585 eV

  energy without entropy =     -530.09680703  energy(sigma->0) =     -530.05133291


--------------------------------------------------------------------------------------------------------




----------------------------------------- Iteration    1(  20)  ---------------------------------------


    POTLOK:  cpu time    1.4760: real time    1.4793
    SETDIJ:  cpu time    2.0280: real time    2.0278
     EDDAV:  cpu time 1167.8920: real time 1169.9359
       DOS:  cpu time    0.0480: real time    0.0492
    CHARGE:  cpu time   45.3680: real time   45.4546
    MIXING:  cpu time    0.1080: real time    0.1073
    --------------------------------------------
      LOOP:  cpu time 1216.9200: real time 1219.0609

 eigenvalue-minimisations  : 49608
 total energy-change (2. order) : 0.3652558E+01  (-0.1141214E+00)
 number of electron     432.0000003 magnetization      86.8980068
 augmentation part      105.4871809 magnetization      65.1952637

 Broyden mixing:
  rms(total) = 0.30911E+01    rms(broyden)= 0.30911E+01
  rms(prec ) = 0.41060E+01
  weight for this iteration     100.00

 eigenvalues of (default mixing * dielectric matrix)
  average eigenvalue GAMMA=   0.6498
  1.9064  1.9064  1.4875  1.4875  0.6457  0.6457  0.4325  0.4325  0.1469  0.1348
  0.1249  0.1121  0.1051  0.0957  0.0833

 Free energy of the ion-electron system (eV)
  ---------------------------------------------------
  alpha Z        PSCENC =      1700.89082154
  Ewald energy   TEWEN  =    -21122.02101893
  -Hartree energ DENC   =     -3497.31223537
  -exchange      EXHF   =         0.00000000
  -V(xc)+E(xc)   XCENC  =      -809.35448175
  PAW double counting   =     14964.25231376   -13659.87802241
  entropy T*S    EENTRO =         0.07409153
  eigenvalues    EBANDS =       767.76324504
  atomic energy  EATOM  =     21129.20924906
  Solvation  Ediel_sol  =         0.00000000
  ---------------------------------------------------
  free energy    TOTEN  =      -526.37603753 eV

  energy without entropy =     -526.45012906  energy(sigma->0) =     -526.40073471


--------------------------------------------------------------------------------------------------------




----------------------------------------- Iteration    1(  21)  ---------------------------------------


    POTLOK:  cpu time    1.4880: real time    1.4879
    SETDIJ:  cpu time    1.9960: real time    2.0003
     EDDAV:  cpu time 1119.0560: real time 1121.0908
       DOS:  cpu time    0.0520: real time    0.0516
    CHARGE:  cpu time   46.1400: real time   46.2274
    MIXING:  cpu time    0.1240: real time    0.1255
    --------------------------------------------
      LOOP:  cpu time 1168.8600: real time 1170.9912

 eigenvalue-minimisations  : 46800
 total energy-change (2. order) : 0.9031625E+01  (-0.7188833E+00)
 number of electron     432.0000002 magnetization      89.4751569
 augmentation part      100.6383286 magnetization      65.8669613

 Broyden mixing:
  rms(total) = 0.21360E+01    rms(broyden)= 0.21358E+01
  rms(prec ) = 0.28363E+01
  weight for this iteration     100.00

 eigenvalues of (default mixing * dielectric matrix)
  average eigenvalue GAMMA=   0.6421
  1.9378  1.9378  1.5537  1.5537  0.6791  0.6791  0.4224  0.4224  0.2775  0.1565
  0.1344  0.1235  0.1126  0.1049  0.0957  0.0833

 Free energy of the ion-electron system (eV)
  ---------------------------------------------------
  alpha Z        PSCENC =      1700.89082154
  Ewald energy   TEWEN  =    -21122.02101893
  -Hartree energ DENC   =     -3497.40050722
  -exchange      EXHF   =         0.00000000
  -V(xc)+E(xc)   XCENC  =      -802.63320497
  PAW double counting   =     14916.20566587   -13621.92243127
  entropy T*S    EENTRO =         0.05099563
  eigenvalues    EBANDS =       780.27601748
  atomic energy  EATOM  =     21129.20924906
  Solvation  Ediel_sol  =         0.00000000
  ---------------------------------------------------
  free energy    TOTEN  =      -517.34441281 eV

  energy without entropy =     -517.39540844  energy(sigma->0) =     -517.36141135


--------------------------------------------------------------------------------------------------------




----------------------------------------- Iteration    1(  22)  ---------------------------------------


    POTLOK:  cpu time    1.5240: real time    1.5263
    SETDIJ:  cpu time    2.0160: real time    2.0184
     EDDAV:  cpu time 1077.6520: real time 1079.5626
       DOS:  cpu time    0.0480: real time    0.0509
    CHARGE:  cpu time   46.7000: real time   46.7775
    MIXING:  cpu time    0.1280: real time    0.1299
    --------------------------------------------
      LOOP:  cpu time 1128.0720: real time 1130.0725

 eigenvalue-minimisations  : 44384
 total energy-change (2. order) : 0.2918452E+01  (-0.2622055E+00)
 number of electron     432.0000002 magnetization      91.5430721
 augmentation part       98.2693234 magnetization      66.9270093

 Broyden mixing:
  rms(total) = 0.16994E+01    rms(broyden)= 0.16994E+01
  rms(prec ) = 0.22385E+01
  weight for this iteration     100.00

 eigenvalues of (default mixing * dielectric matrix)
  average eigenvalue GAMMA=   0.6469
  1.9599  1.9599  1.5475  1.5475  0.8165  0.8165  0.4662  0.4516  0.4516  0.1736
  0.1522  0.1329  0.1248  0.0833  0.1123  0.1050  0.0957

 Free energy of the ion-electron system (eV)
  ---------------------------------------------------
  alpha Z        PSCENC =      1700.89082154
  Ewald energy   TEWEN  =    -21122.02101893
  -Hartree energ DENC   =     -3498.37661956
  -exchange      EXHF   =         0.00000000
  -V(xc)+E(xc)   XCENC  =      -798.94735205
  PAW double counting   =     14902.43252802   -13612.98244959
  entropy T*S    EENTRO =         0.04207381
  eigenvalues    EBANDS =       785.32680683
  atomic energy  EATOM  =     21129.20924906
  Solvation  Ediel_sol  =         0.00000000
  ---------------------------------------------------
  free energy    TOTEN  =      -514.42596087 eV

  energy without entropy =     -514.46803468  energy(sigma->0) =     -514.43998547


--------------------------------------------------------------------------------------------------------




----------------------------------------- Iteration    1(  23)  ---------------------------------------


    POTLOK:  cpu time    1.5640: real time    1.5693
    SETDIJ:  cpu time    2.0320: real time    2.0339
     EDDAV:  cpu time 1044.6520: real time 1046.5661
       DOS:  cpu time    0.0480: real time    0.0508
    CHARGE:  cpu time   46.7520: real time   46.8315
    MIXING:  cpu time    0.1480: real time    0.1491
    --------------------------------------------
      LOOP:  cpu time 1095.2000: real time 1097.2065

 eigenvalue-minimisations  : 42592
 total energy-change (2. order) : 0.1698254E+01  (-0.1070439E+00)
 number of electron     432.0000002 magnetization      92.2897708
 augmentation part       96.5660635 magnetization      66.8707618

 Broyden mixing:
  rms(total) = 0.14113E+01    rms(broyden)= 0.14113E+01
  rms(prec ) = 0.18547E+01
[...]
    FORCOR:  cpu time    0.9360: real time    0.9363
    FORHAR:  cpu time    0.1680: real time    0.1646
    MIXING:  cpu time    0.0640: real time    0.0652
    OFIELD:  cpu time    0.0000: real time    0.0001

  FORCE on cell =-STRESS in cart. coord.  units (eV):
  Direction    XX          YY          ZZ          XY          YZ          ZX
  --------------------------------------------------------------------------------------
  Alpha Z  1700.89082  1700.89082  1700.89082
  Ewald   -7519.77034 -7519.02258 -6083.35511     0.00000    -1.73633    -0.00000
  Hartree   863.62610   864.13930  1785.25976    -0.00000    -0.41351     0.00000
  E(xc)   -1890.10877 -1890.10816 -1899.94505     0.00004     0.02848     0.00000
  Local    1209.73827  1208.39737 -1206.71753    -0.00054     2.04815     0.00000
  n-local   475.95407   475.94436   451.68089    -0.12722    -0.10433    -0.00115
  augment  1017.92432  1017.93298  1058.60474     0.00060    -0.00428     0.00000
  Kinetic  4141.96381  4141.92530  4193.69107     1.39185    -0.01116     0.00044
  Fock        0.00000     0.00000     0.00000     0.00000     0.00000     0.00000
  -------------------------------------------------------------------------------------
  Total       0.21830     0.09939     0.10959     0.00000    -0.19298     0.00000
  in kB       0.30299     0.13796     0.15211     0.00000    -0.26785     0.00000
  external pressure =        0.20 kB  Pullay stress =        0.00 kB


 VOLUME and BASIS-vectors are now :
 -----------------------------------------------------------------------------
  energy-cutoff  :      320.00
  volume of cell :     1154.33
      direct lattice vectors                 reciprocal lattice vectors
    11.000217144  0.000000000  0.000000000     0.090907296  0.052485352 -0.000000000
    -5.500108572  9.526467494  0.000000000     0.000000000  0.104970704  0.000000000
     0.000000000  0.000000000 11.015273102     0.000000000 -0.000000000  0.090783042

  length of vectors
    11.000217144 11.000217144 11.015273102     0.104970704  0.104970704  0.090783042


 FORCES acting on ions
    electron-ion (+dipol)            ewald-force                    non-local-force                 convergence-correction
 -----------------------------------------------------------------------------------------------
   0.410E-02 -.249E+01 0.135E-01   0.932E-02 0.253E+01 -.799E-14   -.171E-01 -.532E-01 -.129E-01   0.937E-03 0.413E-04 -.789E-04
   0.178E+00 0.252E+01 -.163E-01   -.163E+00 -.258E+01 0.568E-12   -.187E-01 0.591E-01 0.151E-01   -.461E-03 0.920E-03 0.371E-03
   -.821E+00 0.420E-01 -.143E-02   0.818E+00 -.409E-01 0.117E-11   0.950E-02 -.651E-03 -.517E-03   -.477E-03 -.731E-03 0.582E-04
   -.408E+01 0.193E-06 -.940E-08   0.417E+01 -.981E-11 -.613E-12   -.104E+00 0.000E+00 0.000E+00   0.876E-03 0.215E-07 0.526E-08
   0.168E+02 -.145E-05 0.468E-06   -.171E+02 -.212E-12 -.782E-13   -.519E+00 0.000E+00 0.000E+00   0.821E-03 -.116E-07 -.732E-08
   -.446E+01 0.108E-05 -.570E-06   0.456E+01 0.983E-11 0.575E-12   -.126E+00 0.000E+00 0.000E+00   -.193E-02 0.377E-08 0.170E-07
   -.821E+00 -.420E-01 0.143E-02   0.818E+00 0.409E-01 -.119E-11   0.950E-02 0.651E-03 0.517E-03   -.477E-03 0.731E-03 -.582E-04
   0.410E-02 0.249E+01 -.135E-01   0.932E-02 -.253E+01 -.641E-12   -.171E-01 0.532E-01 0.129E-01   0.937E-03 -.413E-04 0.789E-04
   0.178E+00 -.252E+01 0.163E-01   -.163E+00 0.258E+01 0.124E-13   -.187E-01 -.591E-01 -.151E-01   -.461E-03 -.920E-03 -.371E-03
   0.111E+00 -.271E+00 -.447E-02   -.107E+00 0.268E+00 -.160E-13   -.474E-02 0.380E-02 0.825E-02   0.461E-03 0.768E-03 0.867E-04
   0.134E+00 0.260E+00 0.491E-02   -.129E+00 -.258E+00 0.632E-12   -.378E-02 -.368E-02 -.860E-02   -.464E-03 0.766E-03 -.351E-03
   -.257E+00 0.105E-01 0.155E-03   0.240E+00 -.101E-01 0.112E-11   0.784E-02 -.499E-03 0.528E-03   0.223E-05 -.301E-04 -.552E-04
   -.353E+00 0.812E-08 0.343E-08   0.353E+00 -.980E-11 -.573E-12   0.198E-02 0.000E+00 0.000E+00   0.917E-03 0.232E-07 -.412E-08
   0.704E+00 -.550E-08 -.749E-08   -.695E+00 0.142E-13 -.115E-13   -.108E-01 0.000E+00 0.000E+00   0.165E-05 -.102E-07 0.622E-08
   -.322E+00 -.400E-08 -.495E-09   0.324E+00 0.984E-11 0.525E-12   0.242E-02 0.000E+00 0.000E+00   -.919E-03 -.947E-08 -.198E-08
   -.257E+00 -.105E-01 -.155E-03   0.240E+00 0.101E-01 -.113E-11   0.784E-02 0.499E-03 -.528E-03   0.223E-05 0.301E-04 0.552E-04
   0.111E+00 0.271E+00 0.447E-02   -.107E+00 -.268E+00 -.668E-12   -.474E-02 -.380E-02 -.825E-02   0.461E-03 -.768E-03 -.867E-04
   0.134E+00 -.260E+00 -.491E-02   -.129E+00 0.258E+00 -.213E-13   -.378E-02 0.368E-02 0.860E-02   -.464E-03 -.766E-03 0.351E-03
   0.128E+00 -.900E+00 -.596E+00   -.158E+00 0.880E+00 0.577E+00   0.280E-01 0.243E-01 0.207E-01   0.589E-03 0.503E-03 0.478E-04
   0.196E+00 0.887E+00 0.592E+00   -.227E+00 -.867E+00 -.575E+00   0.289E-01 -.256E-01 -.214E-01   -.574E-03 0.891E-03 0.398E-03
   -.493E+00 0.246E-01 0.120E-01   0.485E+00 -.226E-01 -.107E-01   0.847E-02 -.187E-02 -.192E-02   -.120E-04 -.380E-03 0.103E-03
   -.132E+01 0.182E-01 -.109E+01   0.132E+01 -.980E-11 0.109E+01   0.732E-03 -.158E-01 -.209E-02   0.105E-02 0.599E-05 -.162E-02
   0.412E+01 -.286E-02 -.314E+00   -.417E+01 0.160E-13 0.315E+00   0.340E-01 0.171E-02 0.428E-02   0.371E-03 0.136E-03 0.158E-03
   -.132E+01 -.120E-01 0.122E+01   0.132E+01 0.983E-11 -.121E+01   0.511E-02 0.131E-01 -.388E-02   -.141E-02 0.186E-03 0.150E-03
   -.486E+00 -.237E-01 0.106E-01   0.485E+00 0.226E-01 -.107E-01   0.151E-02 0.106E-02 -.776E-03   -.325E-03 0.254E-03 0.105E-03
   0.147E+00 0.833E+00 -.558E+00   -.158E+00 -.880E+00 0.577E+00   0.812E-02 0.406E-01 -.204E-01   0.808E-03 -.688E-03 0.576E-04
   0.220E+00 -.819E+00 0.555E+00   -.227E+00 0.867E+00 -.575E+00   0.543E-02 -.425E-01 0.203E-01   -.487E-03 -.909E-03 0.414E-03
   0.147E+00 -.833E+00 0.558E+00   -.158E+00 0.880E+00 -.577E+00   0.812E-02 -.406E-01 0.204E-01   0.808E-03 0.688E-03 -.576E-04
   0.220E+00 0.819E+00 -.555E+00   -.227E+00 -.867E+00 0.575E+00   0.543E-02 0.425E-01 -.203E-01   -.487E-03 0.909E-03 -.414E-03
   -.486E+00 0.237E-01 -.106E-01   0.485E+00 -.226E-01 0.107E-01   0.151E-02 -.106E-02 0.776E-03   -.325E-03 -.254E-03 -.105E-03
   -.132E+01 -.182E-01 0.109E+01   0.132E+01 -.981E-11 -.109E+01   0.732E-03 0.158E-01 0.209E-02   0.105E-02 -.600E-05 0.162E-02
   0.412E+01 0.286E-02 0.314E+00   -.417E+01 0.213E-13 -.315E+00   0.340E-01 -.171E-02 -.428E-02   0.371E-03 -.136E-03 -.158E-03
   -.132E+01 0.120E-01 -.122E+01   0.132E+01 0.984E-11 0.121E+01   0.511E-02 -.131E-01 0.388E-02   -.141E-02 -.186E-03 -.150E-03
   -.493E+00 -.246E-01 -.120E-01   0.485E+00 0.226E-01 0.107E-01   0.847E-02 0.187E-02 0.192E-02   -.119E-04 0.380E-03 -.103E-03
   0.128E+00 0.900E+00 0.596E+00   -.158E+00 -.880E+00 -.577E+00   0.280E-01 -.243E-01 -.207E-01   0.589E-03 -.503E-03 -.478E-04
   0.196E+00 -.887E+00 -.592E+00   -.227E+00 0.867E+00 0.575E+00   0.289E-01 0.256E-01 0.214E-01   -.574E-03 -.891E-03 -.398E-03
   0.116E+00 -.123E-01 -.321E-02   -.112E+00 0.114E-01 0.324E-02   -.162E-02 0.302E-03 -.342E-03   -.273E-03 0.504E-03 0.179E-03
   -.596E-01 0.243E+00 0.369E-01   0.534E-01 -.243E+00 -.337E-01   0.770E-02 0.540E-02 -.676E-02   0.234E-04 -.243E-03 0.777E-04
   -.615E-01 -.230E+00 -.336E-01   0.556E-01 0.232E+00 0.306E-01   0.514E-02 -.525E-02 0.662E-02   0.248E-03 -.142E-03 0.290E-03
   0.172E+00 -.196E+00 -.556E+00   -.173E+00 0.196E+00 0.557E+00   -.413E-02 -.197E-02 -.111E-01   0.132E-02 0.674E-03 0.124E-03
   0.230E+00 0.192E+00 0.557E+00   -.228E+00 -.194E+00 -.554E+00   -.396E-02 0.185E-02 0.412E-02   -.135E-02 0.978E-03 0.355E-03
   -.470E+00 0.589E-02 0.125E-01   0.466E+00 -.489E-02 -.109E-01   -.259E-02 -.262E-02 -.209E-02   0.340E-04 0.186E-03 -.189E-03
   -.268E+00 0.210E+00 -.229E+00   0.261E+00 -.204E+00 0.218E+00   0.134E-01 -.849E-02 0.229E-01   0.522E-03 -.276E-03 -.138E-03
   0.536E+00 0.153E-01 -.172E-01   -.538E+00 -.146E-01 0.200E-01   -.625E-03 0.858E-03 -.340E-02   0.560E-04 -.147E-02 0.515E-03
   -.247E+00 -.222E+00 0.246E+00   0.244E+00 0.217E+00 -.235E+00   0.117E-01 0.792E-02 -.245E-01   -.574E-03 -.212E-03 0.300E-03
   0.379E+00 -.385E-01 0.792E-02   -.383E+00 0.383E-01 -.768E-02   0.455E-02 -.114E-02 -.580E-03   0.151E-03 0.677E-03 -.420E-04
   -.167E+00 0.635E+00 -.536E-01   0.173E+00 -.639E+00 0.520E-01   -.776E-02 0.352E-02 0.436E-03   -.241E-03 -.236E-04 0.279E-04
   -.169E+00 -.602E+00 0.469E-01   0.171E+00 0.607E+00 -.459E-01   -.356E-02 -.319E-02 -.332E-03   0.900E-04 -.252E-03 -.152E-03
   -.278E+01 -.358E+01 0.457E+01   0.274E+01 0.356E+01 -.458E+01   0.205E+00 0.950E-01 -.127E+00   0.249E-02 0.108E-03 0.936E-03
   -.263E+01 0.405E+01 -.519E+01   0.256E+01 -.400E+01 0.516E+01   0.320E+00 -.182E+00 0.239E+00   -.139E-02 0.648E-03 0.938E-04
   -.124E+01 0.139E-01 -.207E-01   0.125E+01 -.167E-01 0.196E-01   -.122E-01 0.281E-02 -.828E-03   -.114E-02 -.553E-03 0.652E-03
   -.108E+01 0.801E+00 0.466E+00   0.107E+01 -.801E+00 -.461E+00   0.724E-02 -.105E-02 -.631E-02   0.553E-03 0.106E-02 0.721E-03
   0.385E+01 0.271E+00 0.175E+00   -.385E+01 -.272E+00 -.174E+00   0.289E-01 -.129E-01 -.107E-01   0.147E-03 -.146E-02 0.811E-04
   -.109E+01 -.892E+00 -.523E+00   0.108E+01 0.887E+00 0.515E+00   0.169E-01 0.816E-02 0.938E-02   -.693E-03 -.207E-03 -.244E-03
   -.108E+01 -.801E+00 -.466E+00   0.107E+01 0.801E+00 0.461E+00   0.724E-02 0.105E-02 0.631E-02   0.553E-03 -.106E-02 -.721E-03
   0.385E+01 -.271E+00 -.175E+00   -.385E+01 0.272E+00 0.174E+00   0.289E-01 0.129E-01 0.107E-01   0.147E-03 0.146E-02 -.811E-04
   -.109E+01 0.892E+00 0.523E+00   0.108E+01 -.887E+00 -.515E+00   0.169E-01 -.816E-02 -.938E-02   -.693E-03 0.207E-03 0.244E-03
   -.124E+01 -.139E-01 0.207E-01   0.125E+01 0.167E-01 -.196E-01   -.122E-01 -.281E-02 0.828E-03   -.114E-02 0.553E-03 -.652E-03
   -.278E+01 0.358E+01 -.457E+01   0.274E+01 -.356E+01 0.458E+01   0.205E+00 -.950E-01 0.127E+00   0.249E-02 -.108E-03 -.936E-03
   -.263E+01 -.405E+01 0.519E+01   0.256E+01 0.400E+01 -.516E+01   0.320E+00 0.182E+00 -.239E+00   -.139E-02 -.648E-03 -.938E-04
   -.167E+00 -.635E+00 0.536E-01   0.173E+00 0.639E+00 -.520E-01   -.776E-02 -.352E-02 -.436E-03   -.241E-03 0.236E-04 -.279E-04
   -.169E+00 0.602E+00 -.469E-01   0.171E+00 -.607E+00 0.459E-01   -.356E-02 0.319E-02 0.332E-03   0.900E-04 0.252E-03 0.152E-03
   0.379E+00 0.385E-01 -.792E-02   -.383E+00 -.383E-01 0.768E-02   0.455E-02 0.114E-02 0.580E-03   0.151E-03 -.677E-03 0.420E-04
   -.268E+00 -.210E+00 0.229E+00   0.261E+00 0.204E+00 -.218E+00   0.134E-01 0.849E-02 -.229E-01   0.522E-03 0.276E-03 0.138E-03
   0.536E+00 -.153E-01 0.172E-01   -.538E+00 0.146E-01 -.200E-01   -.625E-03 -.858E-03 0.340E-02   0.560E-04 0.147E-02 -.515E-03
   -.247E+00 0.222E+00 -.246E+00   0.244E+00 -.217E+00 0.235E+00   0.117E-01 -.792E-02 0.245E-01   -.574E-03 0.212E-03 -.300E-03
   -.470E+00 -.589E-02 -.125E-01   0.466E+00 0.489E-02 0.109E-01   -.259E-02 0.262E-02 0.209E-02   0.340E-04 -.186E-03 0.189E-03
   0.172E+00 0.196E+00 0.556E+00   -.173E+00 -.196E+00 -.557E+00   -.413E-02 0.197E-02 0.111E-01   0.132E-02 -.674E-03 -.124E-03
   0.230E+00 -.192E+00 -.557E+00   -.228E+00 0.194E+00 0.554E+00   -.396E-02 -.185E-02 -.412E-02   -.135E-02 -.978E-03 -.355E-03
   -.596E-01 -.243E+00 -.369E-01   0.534E-01 0.243E+00 0.337E-01   0.770E-02 -.540E-02 0.676E-02   0.234E-04 0.243E-03 -.777E-04
   -.615E-01 0.230E+00 0.336E-01   0.556E-01 -.232E+00 -.306E-01   0.514E-02 0.525E-02 -.662E-02   0.248E-03 0.142E-03 -.290E-03
   0.116E+00 0.123E-01 0.321E-02   -.112E+00 -.114E-01 -.324E-02   -.162E-02 -.302E-03 0.342E-03   -.273E-03 -.504E-03 -.179E-03
 -----------------------------------------------------------------------------------------------
   -.602E+00 0.249E-06 -.210E-06   0.323E-14 -.178E-12 -.343E-12   0.600E+00 0.976E-18 0.184E-17   -.271E-03 0.982E-08 0.148E-07


 POSITION                                       TOTAL-FORCE (eV/Angst)
 -----------------------------------------------------------------------------------
      3.66674      6.35098      0.00000        -0.002670     -0.007408      0.000514
     -3.66674      6.35098      0.00000        -0.004328      0.008564     -0.000800
     -0.00000      6.35098      0.00000         0.005958     -0.000309     -0.001884
      7.33348      0.00000      0.00000        -0.012129     -0.000000      0.000000
      0.13200      0.00000      0.00000        -0.852983     -0.000000      0.000000
      3.66674      0.00000      0.00000        -0.023649     -0.000000      0.000000
      5.50011      3.17549      0.00000         0.005958      0.000309      0.001884
     -1.83337      3.17549      0.00000        -0.002670      0.007408     -0.000514
      1.83337      3.17549      0.00000        -0.004328     -0.008564      0.000800
      3.66674      6.35098      5.50764         0.000116      0.001391      0.003861
     -3.66674      6.35098      5.50764         0.001095     -0.001651     -0.004040
     -0.00000      6.35098      5.50764        -0.009718     -0.000094      0.000629
      7.33348      0.00000      5.50764         0.003165     -0.000000      0.000000
      0.00000      0.00000      5.50764        -0.002697     -0.000000      0.000000
      3.66674      0.00000      5.50764         0.003359     -0.000000      0.000000
      5.50011      3.17549      5.50764        -0.009718      0.000094     -0.000629
     -1.83337      3.17549      5.50764         0.000116     -0.001391     -0.003861
      1.83337      3.17549      5.50764         0.001095      0.001651      0.004040
      3.66674      6.35098      8.26145        -0.001547      0.004477      0.002552
     -3.66674      6.35098      8.26145        -0.002732     -0.004595     -0.003483
     -0.00000      6.35098      8.26145         0.000532     -0.000281     -0.000548
      7.33348      0.00000      8.26145         0.007186      0.002412      0.001728
      0.00000      0.00000      8.26145        -0.013897     -0.001014      0.005313
      3.66674      0.00000      8.26145         0.006736      0.001325     -0.002801
      5.50011      3.17549      8.26145         0.000491      0.000244     -0.000756
     -1.83337      3.17549      8.26145        -0.002135     -0.007279     -0.000552
      1.83337      3.17549      8.26145        -0.001858      0.004325      0.001427
      3.66674      6.35098      2.75382        -0.002135      0.007279      0.000552
     -3.66674      6.35098      2.75382        -0.001858     -0.004325     -0.001427
     -0.00000      6.35098      2.75382         0.000491     -0.000244      0.000756
      7.33348      0.00000      2.75382         0.007186     -0.002412     -0.001728
      0.00000      0.00000      2.75382        -0.013897      0.001014     -0.005313
      3.66674      0.00000      2.75382         0.006736     -0.001325      0.002801
      5.50011      3.17549      2.75382         0.000532      0.000281      0.000548
     -1.83337      3.17549      2.75382        -0.001547     -0.004477     -0.002552
      1.83337      3.17549      2.75382        -0.002732      0.004595      0.003483
      5.50011      5.29248      6.88455         0.002379     -0.000084     -0.000129
     -1.83337      5.29248      6.88455         0.001506      0.004505     -0.003441
      1.83337      5.29248      6.88455        -0.000506     -0.003519      0.003910
      3.66674      8.46797      6.88455        -0.003918     -0.000554     -0.009285
     -3.66674      8.46797      6.88455        -0.003498      0.001040      0.007328
     -0.00000      8.46797      6.88455        -0.006381     -0.001428     -0.000719
      7.33348      2.11699      6.88455         0.006933     -0.002917      0.012111
     -0.00000      2.11699      6.88455        -0.002337      0.000122     -0.000103
      3.66674      2.11699      6.88455         0.007715      0.002770     -0.012930
      5.50011      5.29248      1.37691         0.001290     -0.000595     -0.000381
     -1.83337      5.29248      1.37691        -0.001720     -0.000303     -0.001050
      1.83337      5.29248      1.37691        -0.001801      0.001545      0.000529
      3.66674      8.46797      1.37691         0.169570      0.077620     -0.130386
     -3.66674      8.46797      1.37691         0.253237     -0.134939      0.212114
     -0.00000      8.46797      1.37691        -0.000535     -0.000604     -0.001285
      7.33348      2.11699      1.37691        -0.000110      0.000609     -0.000363
     -0.00000      2.11699      1.37691         0.031832     -0.014846     -0.010208
      3.66674      2.11699      1.37691         0.005581      0.002373      0.001033
      1.83337      7.40947      9.63836        -0.000110     -0.000609      0.000363
      5.50011      7.40947      9.63836         0.031832      0.014846      0.010208
     -1.83337      7.40947      9.63836         0.005581     -0.002373     -0.001033
      5.50011      1.05850      9.63836        -0.000535      0.000604      0.001285
      9.16685      1.05850      9.63836         0.169570     -0.077620      0.130386
      1.83337      1.05850      9.63836         0.253237      0.134939     -0.212114
      3.66674      4.23399      9.63836        -0.001720      0.000303      0.001050
      7.33348      4.23399      9.63836        -0.001801     -0.001545     -0.000529
     -0.00000      4.23399      9.63836         0.001290      0.000595      0.000381
      1.83337      7.40947      4.13073         0.006933      0.002917     -0.012111
      5.50011      7.40947      4.13073        -0.002337     -0.000122      0.000103
     -1.83337      7.40947      4.13073         0.007715     -0.002770      0.012930
      5.50011      1.05850      4.13073        -0.006381      0.001428      0.000719
      9.16685      1.05850      4.13073        -0.003918      0.000554      0.009285
      1.83337      1.05850      4.13073        -0.003498     -0.001040     -0.007328
      3.66674      4.23399      4.13073         0.001506     -0.004505      0.003441
      7.33348      4.23399      4.13073        -0.000506      0.003519     -0.003910
     -0.00000      4.23399      4.13073         0.002379      0.000084      0.000129
 -----------------------------------------------------------------------------------
    total drift:                               -0.002287      0.000000     -0.000000


--------------------------------------------------------------------------------------------------------



  FREE ENERGIE OF THE ION-ELECTRON SYSTEM (eV)
  ---------------------------------------------------
  free  energy   TOTEN  =      -509.73183251 eV

  energy  without entropy=     -509.74686232  energy(sigma->0) =     -509.73684244



--------------------------------------------------------------------------------------------------------


    POTLOK:  cpu time    1.9880: real time    1.9905


--------------------------------------------------------------------------------------------------------


     LOOP+:  cpu time51173.3640: real time51282.9680
    4ORBIT:  cpu time    0.0000: real time    0.0000

 total amount of memory used by VASP on root node   334140. kBytes
========================================================================

   base      :      30000. kBytes
   nonlr-proj:      20521. kBytes
   fftplans  :      28296. kBytes
   grid      :      21369. kBytes
   one-center:        559. kBytes
   wavefun   :     233395. kBytes

  
  
 General timing and accounting informations for this job:
 ========================================================
  
                  Total CPU time used (sec):    51322.164
                            User time (sec):    50905.340
                          System time (sec):      416.824
                         Elapsed time (sec):    51432.549
  
                   Maximum memory used (kb):      386792.
                   Average memory used (kb):           0.
  
                          Minor page faults:        95366
                          Major page faults:           10
                 Voluntary context switches:          726
