 vasp.5.4.1 24Jun15 (build Oct  9 2015 14:58:31) complex                         
 executed on           IFC91_ompi date 2017.05.25  07:06:24
 running on   16 total cores
 distrk:  each k-point on   16 cores,    1 groups
 distr:  one band on NCORES_PER_BAND=   4 cores,    4 groups


--------------------------------------------------------------------------------------------------------


 INCAR:
 POTCAR:   PAW_PBE Mn 06Sep2000                   
 POTCAR:   PAW_PBE As 06Sep2000                   
 POTCAR:   PAW_PBE Mn 06Sep2000                   
   VRHFIN =Mn: d6 s1                                                            
   LEXCH  = PE                                                                  
   EATOM  =   416.8732 eV,   30.6393 Ry                                         
                                                                                
   TITEL  = PAW_PBE Mn 06Sep2000                                                
   LULTRA =        F    use ultrasoft PP ?                                      
   IUNSCR =        1    unscreen: 0-lin 1-nonlin 2-no                           
   RPACOR =    2.000    partial core radius                                     
   POMASS =   54.938; ZVAL   =    7.000    mass and valenz                      
   RCORE  =    2.300    outmost cutoff radius                                   
   RWIGS  =    2.500; RWIGS  =    1.323    wigner-seitz radius (au A)           
   ENMAX  =  269.865; ENMIN  =  202.399 eV                                      
   RCLOC  =    1.725    cutoff for local pot                                    
   LCOR   =        T    correct aug charges                                     
   LPAW   =        T    paw PP                                                  
   EAUG   =  500.711                                                            
   DEXC   =    -.071                                                            
   RMAX   =    2.807    core radius for proj-oper                               
   RAUG   =    1.300    factor for augmentation sphere                          
   RDEP   =    2.338    radius for radial grids                                 
   QCUT   =   -4.454; QGAM   =    8.907    optimization parameters              
                                                                                
   Description                                                                  
     l     E      TYP  RCUT    TYP  RCUT                                        
     2   .000     23  2.300                                                     
     2   .000     23  2.300                                                     
     0   .000     23  2.300                                                     
     0   .000     23  2.300                                                     
     1  -.200     23  2.300                                                     
     1  1.500     23  2.300                                                     
     3   .000      7   .000                                                     
  local pseudopotential read in
  partial core-charges read in
  atomic valenz-charges read in
  non local Contribution for L=           2  read in
    real space projection operators read in
  non local Contribution for L=           2  read in
    real space projection operators read in
  non local Contribution for L=           0  read in
    real space projection operators read in
  non local Contribution for L=           0  read in
    real space projection operators read in
  non local Contribution for L=           1  read in
    real space projection operators read in
  non local Contribution for L=           1  read in
    real space projection operators read in
    PAW grid and wavefunctions read in

   number of l-projection  operators is LMAX  =           6
   number of lm-projection operators is LMMAX =          18

 POTCAR:   PAW_PBE As 06Sep2000                   
   VRHFIN =As: s2p3                                                             
   LEXCH  = PE                                                                  
   EATOM  =   170.0753 eV,   12.5002 Ry                                         
                                                                                
   TITEL  = PAW_PBE As 06Sep2000                                                
   LULTRA =        F    use ultrasoft PP ?                                      
   IUNSCR =        1    unscreen: 0-lin 1-nonlin 2-no                           
   RPACOR =    1.900    partial core radius                                     
   POMASS =   74.922; ZVAL   =    5.000    mass and valenz                      
   RCORE  =    2.100    outmost cutoff radius                                   
   RWIGS  =    2.300; RWIGS  =    1.217    wigner-seitz radius (au A)           
   ENMAX  =  208.680; ENMIN  =  156.510 eV                                      
   ICORE  =        3    local potential                                         
   LCOR   =        T    correct aug charges                                     
   LPAW   =        T    paw PP                                                  
   EAUG   =  462.758                                                            
   DEXC   =    -.108                                                            
   RMAX   =    3.192    core radius for proj-oper                               
   RAUG   =    1.300    factor for augmentation sphere                          
   RDEP   =    2.140    radius for radial grids                                 
   QCUT   =   -3.916; QGAM   =    7.833    optimization parameters              
                                                                                
   Description                                                                  
     l     E      TYP  RCUT    TYP  RCUT                                        
     0   .000     23  2.100                                                     
     0   .000     23  2.100                                                     
     1   .000     23  2.100                                                     
     1   .000     23  2.100                                                     
     2   .000     23  2.100                                                     
     3  -.100      7  2.100                                                     
  local pseudopotential read in
  partial core-charges read in
  atomic valenz-charges read in
  non local Contribution for L=           0  read in
    real space projection operators read in
  non local Contribution for L=           0  read in
    real space projection operators read in
  non local Contribution for L=           1  read in
    real space projection operators read in
  non local Contribution for L=           1  read in
    real space projection operators read in
  non local Contribution for L=           2  read in
    real space projection operators read in
    PAW grid and wavefunctions read in

   number of l-projection  operators is LMAX  =           5
   number of lm-projection operators is LMMAX =          13

 PAW_PBE Mn 06Sep2000                   :
 energy of atom  1       EATOM= -416.8732
 kinetic energy error for atom=    0.0239 (will be added to EATOM!!)
 PAW_PBE As 06Sep2000                   :
 energy of atom  2       EATOM= -170.0753
 kinetic energy error for atom=    0.0021 (will be added to EATOM!!)


 POSCAR: For VASP. System=    MnAs_hex           
  positions in direct lattice
  No initial velocities read in
 exchange correlation table for  LEXCH =        8
   RHO(1)=    0.500       N(1)  =     2000
   RHO(2)=  100.500       N(2)  =     4000



--------------------------------------------------------------------------------------------------------


 ion  position               nearest neighbor table
   1  0.667  0.667  0.000-  56 2.53  55 2.53  46 2.53  49 2.53  48 2.53  61 2.53  19 2.75  28 2.75

   2  0.000  0.667  0.000-  56 2.53  46 2.53  57 2.53  47 2.53  50 2.53  62 2.53  20 2.75  29 2.75

   3  0.333  0.667  0.000-  57 2.53  47 2.53  51 2.53  55 2.53  48 2.53  63 2.53  21 2.75  30 2.75

   4  0.667  0.000  0.000-  49 2.53  59 2.53  58 2.53  52 2.53  55 2.53  51 2.53  22 2.75  31 2.75

   5  0.009  0.000  0.000-  50 2.45  60 2.45  56 2.53  53 2.53  59 2.60  49 2.60  23 2.76  32 2.76

   6  0.333  0.000  0.000-  60 2.53  50 2.53  51 2.53  57 2.53  54 2.53  58 2.53  24 2.75  33 2.75

   7  0.667  0.333  0.000-  52 2.53  62 2.53  58 2.53  54 2.53  61 2.53  46 2.53  25 2.75  34 2.75

   8  0.000  0.333  0.000-  53 2.53  52 2.53  63 2.53  62 2.53  59 2.53  47 2.53  26 2.75  35 2.75

   9  0.333  0.333  0.000-  53 2.53  54 2.53  63 2.53  60 2.53  61 2.53  48 2.53  27 2.75  36 2.75

  10  0.667  0.667  0.500-  65 2.53  64 2.53  37 2.53  40 2.53  39 2.53  70 2.53  19 2.75  28 2.75

  11  0.000  0.667  0.500-  65 2.53  37 2.53  66 2.53  38 2.53  41 2.53  71 2.53  20 2.75  29 2.75

  12  0.333  0.667  0.500-  66 2.53  38 2.53  42 2.53  64 2.53  39 2.53  72 2.53  21 2.75  30 2.75

  13  0.667  0.000  0.500-  40 2.53  68 2.53  67 2.53  43 2.53  64 2.53  42 2.53  22 2.75  31 2.75

  14  0.000  0.000  0.500-  41 2.53  68 2.53  40 2.53  69 2.53  44 2.53  65 2.53  23 2.75  32 2.75

  15  0.333  0.000  0.500-  69 2.53  41 2.53  42 2.53  66 2.53  45 2.53  67 2.53  24 2.75  33 2.75

  16  0.667  0.333  0.500-  43 2.53  71 2.53  67 2.53  45 2.53  70 2.53  37 2.53  25 2.75  34 2.75

  17  0.000  0.333  0.500-  44 2.53  43 2.53  72 2.53  71 2.53  68 2.53  38 2.53  26 2.75  35 2.75

  18  0.333  0.333  0.500-  44 2.53  45 2.53  72 2.53  69 2.53  70 2.53  39 2.53  27 2.75  36 2.75

  19  0.667  0.667  0.750-  56 2.53  55 2.53  37 2.53  40 2.53  39 2.53  61 2.53   1 2.75  10 2.75

  20  0.000  0.667  0.750-  56 2.53  37 2.53  57 2.53  38 2.53  41 2.53  62 2.53   2 2.75  11 2.75

  21  0.333  0.667  0.750-  57 2.53  38 2.53  42 2.53  55 2.53  39 2.53  63 2.53   3 2.75  12 2.75

  22  0.667  0.000  0.750-  40 2.53  59 2.53  58 2.53  43 2.53  55 2.53  42 2.53   4 2.75  13 2.75

  23  0.000  0.000  0.750-  41 2.53  59 2.53  40 2.53  60 2.53  44 2.53  56 2.53  14 2.75   5 2.76

  24  0.333  0.000  0.750-  60 2.53  41 2.53  42 2.53  57 2.53  45 2.53  58 2.53   6 2.75  15 2.75

  25  0.667  0.333  0.750-  43 2.53  62 2.53  58 2.53  45 2.53  61 2.53  37 2.53   7 2.75  16 2.75

  26  0.000  0.333  0.750-  44 2.53  43 2.53  63 2.53  62 2.53  59 2.53  38 2.53   8 2.75  17 2.75

  27  0.333  0.333  0.750-  44 2.53  45 2.53  63 2.53  60 2.53  61 2.53  39 2.53   9 2.75  18 2.75

  28  0.667  0.667  0.250-  65 2.53  64 2.53  46 2.53  49 2.53  48 2.53  70 2.53   1 2.75  10 2.75

  29  0.000  0.667  0.250-  65 2.53  46 2.53  66 2.53  47 2.53  50 2.53  71 2.53   2 2.75  11 2.75

  30  0.333  0.667  0.250-  66 2.53  47 2.53  51 2.53  64 2.53  48 2.53  72 2.53   3 2.75  12 2.75

  31  0.667  0.000  0.250-  49 2.53  68 2.53  67 2.53  52 2.53  64 2.53  51 2.53   4 2.75  13 2.75

  32  0.000  0.000  0.250-  50 2.53  68 2.53  49 2.53  69 2.53  53 2.53  65 2.53  14 2.75   5 2.76

  33  0.333  0.000  0.250-  69 2.53  50 2.53  51 2.53  66 2.53  54 2.53  67 2.53   6 2.75  15 2.75

  34  0.667  0.333  0.250-  52 2.53  71 2.53  67 2.53  54 2.53  70 2.53  46 2.53   7 2.75  16 2.75

  35  0.000  0.333  0.250-  53 2.53  52 2.53  72 2.53  71 2.53  68 2.53  47 2.53   8 2.75  17 2.75

  36  0.333  0.333  0.250-  53 2.53  54 2.53  72 2.53  69 2.53  70 2.53  48 2.53   9 2.75  18 2.75

  37  0.778  0.556  0.625-  11 2.53  20 2.53  19 2.53  10 2.53  16 2.53  25 2.53
  38  0.111  0.556  0.625-  12 2.53  21 2.53  20 2.53  11 2.53  17 2.53  26 2.53
  39  0.444  0.556  0.625-  10 2.53  19 2.53  12 2.53  21 2.53  18 2.53  27 2.53
  40  0.778  0.889  0.625-  13 2.53  22 2.53  14 2.53  23 2.53  10 2.53  19 2.53
  41  0.111  0.889  0.625-  14 2.53  23 2.53  15 2.53  24 2.53  11 2.53  20 2.53
  42  0.444  0.889  0.625-  15 2.53  24 2.53  21 2.53  12 2.53  22 2.53  13 2.53
  43  0.778  0.222  0.625-  16 2.53  25 2.53  17 2.53  26 2.53  13 2.53  22 2.53
  44  0.111  0.222  0.625-  17 2.53  26 2.53  18 2.53  27 2.53  14 2.53  23 2.53
  45  0.444  0.222  0.625-  18 2.53  27 2.53  24 2.53  15 2.53  25 2.53  16 2.53
  46  0.778  0.556  0.125-   2 2.53  29 2.53  28 2.53   1 2.53   7 2.53  34 2.53
  47  0.111  0.556  0.125-   3 2.53  30 2.53  29 2.53   2 2.53   8 2.53  35 2.53
  48  0.444  0.556  0.125-   1 2.53  28 2.53   3 2.53  30 2.53   9 2.53  36 2.53
  49  0.778  0.889  0.125-   4 2.53  31 2.53  32 2.53   1 2.53  28 2.53   5 2.60
  50  0.111  0.889  0.125-   5 2.45  32 2.53   6 2.53  33 2.53   2 2.53  29 2.53
  51  0.444  0.889  0.125-   6 2.53  33 2.53  30 2.53   3 2.53  31 2.53   4 2.53
  52  0.778  0.222  0.125-   7 2.53  34 2.53   8 2.53  35 2.53   4 2.53  31 2.53
  53  0.111  0.222  0.125-   8 2.53  35 2.53   9 2.53  36 2.53  32 2.53   5 2.53
  54  0.444  0.222  0.125-   9 2.53  36 2.53  33 2.53   6 2.53  34 2.53   7 2.53
  55  0.556  0.778  0.875-   1 2.53  19 2.53   4 2.53  22 2.53  21 2.53   3 2.53
  56  0.889  0.778  0.875-   2 2.53  20 2.53  19 2.53   1 2.53  23 2.53   5 2.53
  57  0.222  0.778  0.875-   3 2.53  21 2.53  20 2.53   2 2.53   6 2.53  24 2.53
  58  0.556  0.111  0.875-   4 2.53  22 2.53   7 2.53  25 2.53  24 2.53   6 2.53
  59  0.889  0.111  0.875-  23 2.53  22 2.53   4 2.53   8 2.53  26 2.53   5 2.60
  60  0.222  0.111  0.875-   5 2.45   6 2.53  24 2.53  23 2.53   9 2.53  27 2.53
  61  0.556  0.444  0.875-   9 2.53  27 2.53  25 2.53   7 2.53   1 2.53  19 2.53
  62  0.889  0.444  0.875-   7 2.53  25 2.53   8 2.53  26 2.53   2 2.53  20 2.53
  63  0.222  0.444  0.875-   8 2.53  26 2.53   9 2.53  27 2.53   3 2.53  21 2.53
  64  0.556  0.778  0.375-  10 2.53  28 2.53  13 2.53  31 2.53  30 2.53  12 2.53
  65  0.889  0.778  0.375-  11 2.53  29 2.53  28 2.53  10 2.53  14 2.53  32 2.53
  66  0.222  0.778  0.375-  12 2.53  30 2.53  29 2.53  11 2.53  15 2.53  33 2.53
  67  0.556  0.111  0.375-  13 2.53  31 2.53  16 2.53  34 2.53  33 2.53  15 2.53
  68  0.889  0.111  0.375-  14 2.53  32 2.53  31 2.53  13 2.53  17 2.53  35 2.53
  69  0.222  0.111  0.375-  15 2.53  33 2.53  32 2.53  14 2.53  18 2.53  36 2.53
  70  0.556  0.444  0.375-  18 2.53  36 2.53  34 2.53  16 2.53  10 2.53  28 2.53
  71  0.889  0.444  0.375-  16 2.53  34 2.53  17 2.53  35 2.53  11 2.53  29 2.53
  72  0.222  0.444  0.375-  17 2.53  35 2.53  18 2.53  36 2.53  12 2.53  30 2.53

  LATTYP: Found a hexagonal cell.
 ALAT       =    11.0002171438
 C/A-ratio  =     1.0013686964
  
  Lattice vectors:
  
 A1 = (  11.0002171438,   0.0000000000,   0.0000000000)
 A2 = (  -5.5001085719,   9.5264674936,   0.0000000000)
 A3 = (   0.0000000000,   0.0000000000,  11.0152731015)


Analysis of symmetry for initial positions (statically):
=====================================================================
 Subroutine PRICEL returns:
 Original cell was already a primitive cell.
 

 Routine SETGRP: Setting up the symmetry group for a 
 hexagonal supercell.


 Subroutine GETGRP returns: Found  2 space group operations
 (whereof  2 operations were pure point group operations)
 out of a pool of 24 trial point group operations.


The static configuration has the point symmetry C_2 .


Analysis of symmetry for dynamics (positions and initial velocities):
=====================================================================
 Subroutine PRICEL returns:
 Original cell was already a primitive cell.
 

 Routine SETGRP: Setting up the symmetry group for a 
 hexagonal supercell.


 Subroutine GETGRP returns: Found  2 space group operations
 (whereof  2 operations were pure point group operations)
 out of a pool of 24 trial point group operations.


The dynamic configuration has the point symmetry C_2 .


Analysis of structural, dynamic, and magnetic symmetry:
=====================================================================
 Subroutine PRICEL returns:
 Original cell was already a primitive cell.
 

 Routine SETGRP: Setting up the symmetry group for a 
 hexagonal supercell.


 Subroutine GETGRP returns: Found  2 space group operations
 (whereof  2 operations were pure point group operations)
 out of a pool of 24 trial point group operations.


The magnetic configuration has the point symmetry C_2 .


 Subroutine INISYM returns: Found  2 space group operations
 (whereof  2 operations are pure point group operations),
 and found     1 'primitive' translations



 KPOINTS: Automatic mesh                          

Automatic generation of k-mesh.
Space group operators:
 irot       det(A)        alpha          n_x          n_y          n_z        tau_x        tau_y        tau_z
    1     1.000000     0.000000     1.000000     0.000000     0.000000     0.000000     0.000000     0.000000
    2     1.000000   180.000000     1.000000     0.000000     0.000000     0.000000     0.000000     0.000000
 
 Subroutine IBZKPT returns following result:
 ===========================================
 
 Found     24 irreducible k-points:
 
 Following reciprocal coordinates:
            Coordinates               Weight
  0.000000  0.000000  0.000000      1.000000
  0.250000  0.000000  0.000000      4.000000
  0.500000  0.000000  0.000000      2.000000
  0.000000  0.250000  0.000000      2.000000
  0.250000  0.250000  0.000000      4.000000
  0.500000  0.250000  0.000000      2.000000
  0.000000  0.500000  0.000000      1.000000
  0.000000  0.000000  0.250000      2.000000
  0.250000  0.000000  0.250000      4.000000
  0.500000  0.000000  0.250000      4.000000
 -0.250000  0.000000  0.250000      4.000000
  0.000000  0.250000  0.250000      2.000000
  0.250000  0.250000  0.250000      4.000000
  0.500000  0.250000  0.250000      4.000000
  0.000000  0.500000  0.250000      2.000000
  0.250000  0.500000  0.250000      4.000000
  0.000000 -0.250000  0.250000      2.000000
  0.000000  0.000000  0.500000      1.000000
  0.250000  0.000000  0.500000      4.000000
  0.500000  0.000000  0.500000      2.000000
  0.000000  0.250000  0.500000      2.000000
  0.250000  0.250000  0.500000      4.000000
  0.500000  0.250000  0.500000      2.000000
  0.000000  0.500000  0.500000      1.000000
 
 Following cartesian coordinates:
            Coordinates               Weight
  0.000000  0.000000  0.000000      1.000000
  0.022727  0.013121  0.000000      4.000000
  0.045454  0.026243  0.000000      2.000000
  0.000000  0.026243  0.000000      2.000000
  0.022727  0.039364  0.000000      4.000000
  0.045454  0.052485  0.000000      2.000000
  0.000000  0.052485  0.000000      1.000000
  0.000000  0.000000  0.022696      2.000000
  0.022727  0.013121  0.022696      4.000000
  0.045454  0.026243  0.022696      4.000000
 -0.022727 -0.013121  0.022696      4.000000
  0.000000  0.026243  0.022696      2.000000
  0.022727  0.039364  0.022696      4.000000
  0.045454  0.052485  0.022696      4.000000
  0.000000  0.052485  0.022696      2.000000
  0.022727  0.065607  0.022696      4.000000
  0.000000 -0.026243  0.022696      2.000000
  0.000000  0.000000  0.045392      1.000000
  0.022727  0.013121  0.045392      4.000000
  0.045454  0.026243  0.045392      2.000000
  0.000000  0.026243  0.045392      2.000000
  0.022727  0.039364  0.045392      4.000000
  0.045454  0.052485  0.045392      2.000000
  0.000000  0.052485  0.045392      1.000000
 


--------------------------------------------------------------------------------------------------------




 Dimension of arrays:
   k-points           NKPTS =     24   k-points in BZ     NKDIM =     24   number of bands    NBANDS=    300
   number of dos      NEDOS =    301   number of ions     NIONS =     72
   non local maximal  LDIM  =      6   non local SUM 2l+1 LMDIM =     18
   total plane-waves  NPLWV = 343000
   max r-space proj   IRMAX =   6047   max aug-charges    IRDMAX=  98554
   dimension x,y,z NGX =    70 NGY =   70 NGZ =   70
   dimension x,y,z NGXF=   140 NGYF=  140 NGZF=  140
   support grid    NGXF=   280 NGYF=  280 NGZF=  280
   ions per type =              36  36
 NGX,Y,Z   is equivalent  to a cutoff of  10.58, 10.58, 10.56 a.u.
 NGXF,Y,Z  is equivalent  to a cutoff of  21.16, 21.16, 21.13 a.u.


 I would recommend the setting:
   dimension x,y,z NGX =    64 NGY =   64 NGZ =   64
 SYSTEM =  MnAs hex                                
 POSCAR =  For VASP. System=    MnAs_hex           

 Startparameter for this run:
   NWRITE =      2    write-flag & timer
   PREC   = accura    normal or accurate (medium, high low for compatibility)
   ISTART =      0    job   : 0-new  1-cont  2-samecut
   ICHARG =      2    charge: 1-file 2-atom 10-const
   ISPIN  =      2    spin polarized calculation?
   LNONCOLLINEAR =      F non collinear calculations
   LSORBIT =      F    spin-orbit coupling
   INIWAV =      1    electr: 0-lowe 1-rand  2-diag
   LASPH  =      F    aspherical Exc in radial PAW
   METAGGA=      F    non-selfconsistent MetaGGA calc.

 Electronic Relaxation 1
   ENCUT  =  320.0 eV  23.52 Ry    4.85 a.u.  16.04 16.04 16.07*2*pi/ulx,y,z
   ENINI  =  320.0     initial cutoff
   ENAUG  =  500.7 eV  augmentation charge cutoff
   NELM   =    200;   NELMIN=  2; NELMDL=  0     # of ELM steps 
   EDIFF  = 0.1E-06   stopping-criterion for ELM
   LREAL  =      T    real-space projection
   NLSPLINE    = F    spline interpolate recip. space projectors
   LCOMPAT=      F    compatible to vasp.4.4
   GGA_COMPAT  = T    GGA compatible to vasp.4.4-vasp.4.6
   LMAXPAW     = -100 max onsite density
   LMAXMIX     =    2 max onsite mixed and CHGCAR
   VOSKOWN=      0    Vosko Wilk Nusair interpolation
   ROPT   =    0.00000   0.00000
 Ionic relaxation
   EDIFFG = 0.1E-05   stopping-criterion for IOM
   NSW    =      0    number of steps for IOM
   NBLOCK =      1;   KBLOCK =      1    inner block; outer block 
   IBRION =     -1    ionic relax: 0-MD 1-quasi-New 2-CG
   NFREE  =      1    steps in history (QN), initial steepest desc. (CG)
   ISIF   =      6    stress and relaxation
   IWAVPR =     10    prediction:  0-non 1-charg 2-wave 3-comb
   ISYM   =      2    0-nonsym 1-usesym 2-fastsym
   LCORR  =      T    Harris-Foulkes like correction to forces

   POTIM  = 0.5000    time-step for ionic-motion
   TEIN   =    0.0    initial temperature
   TEBEG  =    0.0;   TEEND  =   0.0 temperature during run
   SMASS  =  -3.00    Nose mass-parameter (am)
   estimated Nose-frequenzy (Omega)   =  0.10E-29 period in steps =****** mass=  -0.277E-26a.u.
   SCALEE = 1.0000    scale energy and forces
   NPACO  =    256;   APACO  = 16.0  distance and # of slots for P.C.
   PSTRESS=    0.0 pullay stress

  Mass of Ions in am
   POMASS =  54.94 74.92
  Ionic Valenz
   ZVAL   =   7.00  5.00
  Atomic Wigner-Seitz radii
   RWIGS  =  -1.00 -1.00
  virtual crystal weights 
   VCA    =   1.00  1.00
   NELECT =     432.0000    total number of electrons
   NUPDOWN=      -1.0000    fix difference up-down

 DOS related values:
   EMIN   =  10.00;   EMAX   =-10.00  energy-range for DOS
   EFERMI =   0.00
   ISMEAR =     1;   SIGMA  =   0.20  broadening in eV -4-tet -1-fermi 0-gaus

 Electronic relaxation 2 (details)
   IALGO  =     38    algorithm
   LDIAG  =      T    sub-space diagonalisation (order eigenvalues)
   LSUBROT=      F    optimize rotation matrix (better conditioning)
   TURBO    =      0    0=normal 1=particle mesh
   IRESTART =      0    0=no restart 2=restart with 2 vectors
   NREBOOT  =      0    no. of reboots
   NMIN     =      0    reboot dimension
   EREF     =   0.00    reference energy to select bands
   IMIX   =      4    mixing-type and parameters
     AMIX     =   0.40;   BMIX     =  1.00
     AMIX_MAG =   1.60;   BMIX_MAG =  1.00
     AMIN     =   0.10
     WC   =   100.;   INIMIX=   1;  MIXPRE=   1;  MAXMIX= -45

 Intra band minimization:
   WEIMIN = 0.0000     energy-eigenvalue tresh-hold
   EBREAK =  0.83E-10  absolut break condition
   DEPER  =   0.30     relativ break condition  

   TIME   =   0.40     timestep for ELM

  volume/ion in A,a.u.               =      16.03       108.19
  Fermi-wavevector in a.u.,A,eV,Ry     =   1.179759  2.229421 18.937012  1.391831
  Thomas-Fermi vector in A             =   2.316064

 Write flags
   LWAVE  =      F    write WAVECAR
   LCHARG =      F    write CHGCAR
   LVTOT  =      F    write LOCPOT, total local potential
   LVHAR  =      F    write LOCPOT, Hartree potential only
   LELF   =      F    write electronic localiz. function (ELF)
   LORBIT =      0    0 simple, 1 ext, 2 COOP (PROOUT)


 Dipole corrections
   LMONO  =      F    monopole corrections only (constant potential shift)
   LDIPOL =      F    correct potential (dipole corrections)
   IDIPOL =      0    1-x, 2-y, 3-z, 4-all directions 
   EPSILON=  1.0000000 bulk dielectric constant

 Exchange correlation treatment:
   GGA     =    --    GGA type
   LEXCH   =     8    internal setting for exchange type
   VOSKOWN=      0    Vosko Wilk Nusair interpolation
   LHFCALC =     F    Hartree Fock is set to
   LHFONE  =     F    Hartree Fock one center treatment
   AEXX    =    0.0000 exact exchange contribution

 Linear response parameters
   LEPSILON=     F    determine dielectric tensor
   LRPA    =     F    only Hartree local field effects (RPA)
   LNABLA  =     F    use nabla operator in PAW spheres
   LVEL    =     F    velocity operator in full k-point grid
   LINTERFAST=   F  fast interpolation
   KINTER  =     0    interpolate to denser k-point grid
   CSHIFT  =0.1000    complex shift for real part using Kramers Kronig
   OMEGAMAX=  -1.0    maximum frequency
   DEG_THRESHOLD= 0.2000000E-02 threshold for treating states as degnerate
   RTIME   =    0.100 relaxation time in fs

 Orbital magnetization related:
   ORBITALMAG=     F  switch on orbital magnetization
   LCHIMAG   =     F  perturbation theory with respect to B field
   DQ        =  0.001000  dq finite difference perturbation B field



--------------------------------------------------------------------------------------------------------


 Static calculation
 charge density and potential will be updated during run
 spin polarized calculation
 Variant of blocked Davidson
 Davidson routine will perform the subspace rotation
 perform sub-space diagonalisation
    after iterative eigenvector-optimisation
 modified Broyden-mixing scheme, WC =      100.0
 initial mixing is a Kerker type mixing with AMIX =  0.4000 and BMIX =      1.0000
 Hartree-type preconditioning will be used
 using additional bands           84
 real space projection scheme for non local part
 use partial core corrections
 calculate Harris-corrections to forces   (improved forces if not selfconsistent)
 use gradient corrections 
 use of overlap-Matrix (Vanderbilt PP)
 Methfessel and Paxton  Order N= 1 SIGMA  =   0.20


--------------------------------------------------------------------------------------------------------


  energy-cutoff  :      320.00
  volume of cell :     1154.33
      direct lattice vectors                 reciprocal lattice vectors
    11.000217144  0.000000000  0.000000000     0.090907296  0.052485352 -0.000000000
    -5.500108572  9.526467494  0.000000000     0.000000000  0.104970704  0.000000000
     0.000000000  0.000000000 11.015273102     0.000000000 -0.000000000  0.090783042

  length of vectors
    11.000217144 11.000217144 11.015273102     0.104970704  0.104970704  0.090783042



 k-points in units of 2pi/SCALE and weight: Automatic mesh                          
   0.00000000  0.00000000  0.00000000       0.016
   0.02272682  0.01312134  0.00000000       0.062
   0.04545365  0.02624268  0.00000000       0.031
   0.00000000  0.02624268  0.00000000       0.031
   0.02272682  0.03936401  0.00000000       0.062
   0.04545365  0.05248535  0.00000000       0.031
   0.00000000  0.05248535  0.00000000       0.016
   0.00000000  0.00000000  0.02269576       0.031
   0.02272682  0.01312134  0.02269576       0.062
   0.04545365  0.02624268  0.02269576       0.062
  -0.02272682 -0.01312134  0.02269576       0.062
   0.00000000  0.02624268  0.02269576       0.031
   0.02272682  0.03936401  0.02269576       0.062
   0.04545365  0.05248535  0.02269576       0.062
   0.00000000  0.05248535  0.02269576       0.031
   0.02272682  0.06560669  0.02269576       0.062
   0.00000000 -0.02624268  0.02269576       0.031
   0.00000000  0.00000000  0.04539152       0.016
   0.02272682  0.01312134  0.04539152       0.062
   0.04545365  0.02624268  0.04539152       0.031
   0.00000000  0.02624268  0.04539152       0.031
   0.02272682  0.03936401  0.04539152       0.062
   0.04545365  0.05248535  0.04539152       0.031
   0.00000000  0.05248535  0.04539152       0.016

 k-points in reciprocal lattice and weights: Automatic mesh                          
   0.00000000  0.00000000  0.00000000       0.016
   0.25000000  0.00000000  0.00000000       0.062
   0.50000000  0.00000000  0.00000000       0.031
   0.00000000  0.25000000  0.00000000       0.031
   0.25000000  0.25000000  0.00000000       0.062
   0.50000000  0.25000000  0.00000000       0.031
   0.00000000  0.50000000  0.00000000       0.016
   0.00000000  0.00000000  0.25000000       0.031
   0.25000000  0.00000000  0.25000000       0.062
   0.50000000  0.00000000  0.25000000       0.062
  -0.25000000  0.00000000  0.25000000       0.062
   0.00000000  0.25000000  0.25000000       0.031
   0.25000000  0.25000000  0.25000000       0.062
   0.50000000  0.25000000  0.25000000       0.062
   0.00000000  0.50000000  0.25000000       0.031
   0.25000000  0.50000000  0.25000000       0.062
   0.00000000 -0.25000000  0.25000000       0.031
   0.00000000  0.00000000  0.50000000       0.016
   0.25000000  0.00000000  0.50000000       0.062
   0.50000000  0.00000000  0.50000000       0.031
   0.00000000  0.25000000  0.50000000       0.031
   0.25000000  0.25000000  0.50000000       0.062
   0.50000000  0.25000000  0.50000000       0.031
   0.00000000  0.50000000  0.50000000       0.016

 position of ions in fractional coordinates (direct lattice) 
   0.66666667  0.66666667  0.00000000
   0.00000000  0.66666667  0.00000000
   0.33333333  0.66666667  0.00000000
   0.66666667  0.00000000  0.00000000
   0.00900000  0.00000000  0.00000000
   0.33333333  0.00000000  0.00000000
   0.66666667  0.33333333  0.00000000
   0.00000000  0.33333333  0.00000000
   0.33333333  0.33333333  0.00000000
   0.66666667  0.66666667  0.50000000
   0.00000000  0.66666667  0.50000000
   0.33333333  0.66666667  0.50000000
   0.66666667  0.00000000  0.50000000
   0.00000000  0.00000000  0.50000000
   0.33333333  0.00000000  0.50000000
   0.66666667  0.33333333  0.50000000
   0.00000000  0.33333333  0.50000000
   0.33333333  0.33333333  0.50000000
   0.66666667  0.66666667  0.75000000
   0.00000000  0.66666667  0.75000000
   0.33333333  0.66666667  0.75000000
   0.66666667  0.00000000  0.75000000
   0.00000000  0.00000000  0.75000000
   0.33333333  0.00000000  0.75000000
   0.66666667  0.33333333  0.75000000
   0.00000000  0.33333333  0.75000000
   0.33333333  0.33333333  0.75000000
   0.66666667  0.66666667  0.25000000
   0.00000000  0.66666667  0.25000000
   0.33333333  0.66666667  0.25000000
   0.66666667  0.00000000  0.25000000
   0.00000000  0.00000000  0.25000000
   0.33333333  0.00000000  0.25000000
   0.66666667  0.33333333  0.25000000
   0.00000000  0.33333333  0.25000000
   0.33333333  0.33333333  0.25000000
   0.77777778  0.55555556  0.62500000
   0.11111111  0.55555556  0.62500000
   0.44444444  0.55555556  0.62500000
   0.77777778  0.88888889  0.62500000
   0.11111111  0.88888889  0.62500000
   0.44444444  0.88888889  0.62500000
   0.77777778  0.22222222  0.62500000
   0.11111111  0.22222222  0.62500000
   0.44444444  0.22222222  0.62500000
   0.77777778  0.55555556  0.12500000
   0.11111111  0.55555556  0.12500000
   0.44444444  0.55555556  0.12500000
   0.77777778  0.88888889  0.12500000
   0.11111111  0.88888889  0.12500000
   0.44444444  0.88888889  0.12500000
   0.77777778  0.22222222  0.12500000
   0.11111111  0.22222222  0.12500000
   0.44444444  0.22222222  0.12500000
   0.55555556  0.77777778  0.87500000
   0.88888889  0.77777778  0.87500000
   0.22222222  0.77777778  0.87500000
   0.55555556  0.11111111  0.87500000
   0.88888889  0.11111111  0.87500000
   0.22222222  0.11111111  0.87500000
   0.55555556  0.44444444  0.87500000
   0.88888889  0.44444444  0.87500000
   0.22222222  0.44444444  0.87500000
   0.55555556  0.77777778  0.37500000
   0.88888889  0.77777778  0.37500000
   0.22222222  0.77777778  0.37500000
   0.55555556  0.11111111  0.37500000
   0.88888889  0.11111111  0.37500000
   0.22222222  0.11111111  0.37500000
   0.55555556  0.44444444  0.37500000
   0.88888889  0.44444444  0.37500000
   0.22222222  0.44444444  0.37500000

 position of ions in cartesian coordinates  (Angst):
   3.66673905  6.35097833  0.00000000
  -3.66673905  6.35097833  0.00000000
  -0.00000000  6.35097833  0.00000000
   7.33347810  0.00000000  0.00000000
   0.09900195  0.00000000  0.00000000
   3.66673905  0.00000000  0.00000000
   5.50010857  3.17548916  0.00000000
  -1.83336952  3.17548916  0.00000000
   1.83336952  3.17548916  0.00000000
   3.66673905  6.35097833  5.50763655
  -3.66673905  6.35097833  5.50763655
  -0.00000000  6.35097833  5.50763655
   7.33347810  0.00000000  5.50763655
   0.00000000  0.00000000  5.50763655
   3.66673905  0.00000000  5.50763655
   5.50010857  3.17548916  5.50763655
  -1.83336952  3.17548916  5.50763655
   1.83336952  3.17548916  5.50763655
   3.66673905  6.35097833  8.26145483
  -3.66673905  6.35097833  8.26145483
  -0.00000000  6.35097833  8.26145483
   7.33347810  0.00000000  8.26145483
   0.00000000  0.00000000  8.26145483
   3.66673905  0.00000000  8.26145483
   5.50010857  3.17548916  8.26145483
  -1.83336952  3.17548916  8.26145483
   1.83336952  3.17548916  8.26145483
   3.66673905  6.35097833  2.75381828
  -3.66673905  6.35097833  2.75381828
  -0.00000000  6.35097833  2.75381828
   7.33347810  0.00000000  2.75381828
   0.00000000  0.00000000  2.75381828
   3.66673905  0.00000000  2.75381828
   5.50010857  3.17548916  2.75381828
  -1.83336952  3.17548916  2.75381828
   1.83336952  3.17548916  2.75381828
   5.50010857  5.29248194  6.88454569
  -1.83336952  5.29248194  6.88454569
   1.83336952  5.29248194  6.88454569
   3.66673905  8.46797111  6.88454569
  -3.66673905  8.46797111  6.88454569
  -0.00000000  8.46797111  6.88454569
   7.33347810  2.11699278  6.88454569
  -0.00000000  2.11699278  6.88454569
   3.66673905  2.11699278  6.88454569
   5.50010857  5.29248194  1.37690914
  -1.83336952  5.29248194  1.37690914
   1.83336952  5.29248194  1.37690914
   3.66673905  8.46797111  1.37690914
  -3.66673905  8.46797111  1.37690914
  -0.00000000  8.46797111  1.37690914
   7.33347810  2.11699278  1.37690914
  -0.00000000  2.11699278  1.37690914
   3.66673905  2.11699278  1.37690914
   1.83336952  7.40947472  9.63836396
   5.50010857  7.40947472  9.63836396
  -1.83336952  7.40947472  9.63836396
   5.50010857  1.05849639  9.63836396
   9.16684762  1.05849639  9.63836396
   1.83336952  1.05849639  9.63836396
   3.66673905  4.23398555  9.63836396
   7.33347810  4.23398555  9.63836396
  -0.00000000  4.23398555  9.63836396
   1.83336952  7.40947472  4.13072741
   5.50010857  7.40947472  4.13072741
  -1.83336952  7.40947472  4.13072741
   5.50010857  1.05849639  4.13072741
   9.16684762  1.05849639  4.13072741
   1.83336952  1.05849639  4.13072741
   3.66673905  4.23398555  4.13072741
   7.33347810  4.23398555  4.13072741
  -0.00000000  4.23398555  4.13072741



--------------------------------------------------------------------------------------------------------


 k-point  1 :   0.0000 0.0000 0.0000  plane waves:   14931
 k-point  2 :   0.2500 0.0000 0.0000  plane waves:   14982
 k-point  3 :   0.5000 0.0000 0.0000  plane waves:   15008
 k-point  4 :   0.0000 0.2500 0.0000  plane waves:   14982
 k-point  5 :   0.2500 0.2500 0.0000  plane waves:   14994
 k-point  6 :   0.5000 0.2500 0.0000  plane waves:   14994
 k-point  7 :   0.0000 0.5000 0.0000  plane waves:   15008
 k-point  8 :   0.0000 0.0000 0.2500  plane waves:   14990
 k-point  9 :   0.2500 0.0000 0.2500  plane waves:   15013
 k-point 10 :   0.5000 0.0000 0.2500  plane waves:   15002
 k-point 11 :  -0.2500 0.0000 0.2500  plane waves:   15013
 k-point 12 :   0.0000 0.2500 0.2500  plane waves:   15013
 k-point 13 :   0.2500 0.2500 0.2500  plane waves:   15003
 k-point 14 :   0.5000 0.2500 0.2500  plane waves:   15003
 k-point 15 :   0.0000 0.5000 0.2500  plane waves:   15002
 k-point 16 :   0.2500 0.5000 0.2500  plane waves:   15003
 k-point 17 :   0.0000-0.2500 0.2500  plane waves:   15013
 k-point 18 :   0.0000 0.0000 0.5000  plane waves:   14984
 k-point 19 :   0.2500 0.0000 0.5000  plane waves:   15008
 k-point 20 :   0.5000 0.0000 0.5000  plane waves:   15044
 k-point 21 :   0.0000 0.2500 0.5000  plane waves:   15008
 k-point 22 :   0.2500 0.2500 0.5000  plane waves:   15006
 k-point 23 :   0.5000 0.2500 0.5000  plane waves:   15006
 k-point 24 :   0.0000 0.5000 0.5000  plane waves:   15044

 maximum and minimum number of plane-waves per node :      3774     3707

 maximum number of plane-waves:     15044
 maximum index in each direction: 
   IXMAX=   16   IYMAX=   16   IZMAX=   16
   IXMIN=  -16   IYMIN=  -16   IZMIN=  -16

 NGX is ok and might be reduce to  66
 NGY is ok and might be reduce to  66
 NGZ is ok and might be reduce to  66

 real space projection operators:
  total allocation   :      41365.55 KBytes
  max/ min on nodes  :      10763.38       9931.81


 parallel 3D FFT for wavefunctions:
    minimum data exchange during FFTs selected (reduces bandwidth)
 parallel 3D FFT for charge:
    minimum data exchange during FFTs selected (reduces bandwidth)


 total amount of memory used by VASP on root node   334142. kBytes
========================================================================

   base      :      30000. kBytes
   nonlr-proj:      20523. kBytes
   fftplans  :      28296. kBytes
   grid      :      21369. kBytes
   one-center:        559. kBytes
   wavefun   :     233395. kBytes

     INWAV:  cpu time    0.0000: real time    0.0002
 Broyden mixing: mesh for mixing (old mesh)
   NGX = 33   NGY = 33   NGZ = 33
  (NGX  =140   NGY  =140   NGZ  =140)
  gives a total of  35937 points

 initial charge density was supplied:
 charge density of overlapping atoms calculated
 number of electron     432.0000000 magnetization      36.0000000
 keeping initial charge density in first step


--------------------------------------------------------------------------------------------------------


 Maximum index for non-local projection operator         1589
 Maximum index for augmentation-charges         6365 (set IRDMAX)


--------------------------------------------------------------------------------------------------------


 First call to EWALD:  gamma=   0.169
 Maximum number of real-space cells 3x 3x 3
 Maximum number of reciprocal cells 3x 3x 3

 FEWALD executed in parallel
    FEWALD:  cpu time    0.0480: real time    0.0477


----------------------------------------- Iteration    1(   1)  ---------------------------------------


    POTLOK:  cpu time    1.4920: real time    1.4985
    SETDIJ:  cpu time    2.0520: real time    2.0536
     EDDAV:  cpu time  816.5920: real time  819.1280
       DOS:  cpu time    0.0440: real time    0.0426
    --------------------------------------------
      LOOP:  cpu time  820.1840: real time  822.7290

 eigenvalue-minimisations  : 28896
 total energy-change (2. order) : 0.3257273E+04  (-0.1146647E+05)
 number of electron     432.0000000 magnetization      36.0000000
 augmentation part      432.0000000 magnetization      36.0000000

 Free energy of the ion-electron system (eV)
  ---------------------------------------------------
  alpha Z        PSCENC =      1700.89082154
  Ewald energy   TEWEN  =    -21122.51489899
  -Hartree energ DENC   =     -3902.87143771
  -exchange      EXHF   =         0.00000000
  -V(xc)+E(xc)   XCENC  =      -848.10599790
  PAW double counting   =     14295.91323732   -12980.49464661
  entropy T*S    EENTRO =         0.00209901
  eigenvalues    EBANDS =      4985.24496598
  atomic energy  EATOM  =     21129.20924906
  Solvation  Ediel_sol  =         0.00000000
  ---------------------------------------------------
  free energy    TOTEN  =      3257.27339170 eV

  energy without entropy =     3257.27129269  energy(sigma->0) =     3257.27269203


--------------------------------------------------------------------------------------------------------




----------------------------------------- Iteration    1(   2)  ---------------------------------------


     EDDAV:  cpu time  783.5080: real time  786.2935
       DOS:  cpu time    0.0440: real time    0.0467
    --------------------------------------------
      LOOP:  cpu time  783.6200: real time  786.4328

 eigenvalue-minimisations  : 28800
 total energy-change (2. order) :-0.3339107E+04  (-0.3207516E+04)
 number of electron     432.0000000 magnetization      36.0000000
 augmentation part      432.0000000 magnetization      36.0000000

 Free energy of the ion-electron system (eV)
  ---------------------------------------------------
  alpha Z        PSCENC =      1700.89082154
  Ewald energy   TEWEN  =    -21122.51489899
  -Hartree energ DENC   =     -3902.87143771
  -exchange      EXHF   =         0.00000000
  -V(xc)+E(xc)   XCENC  =      -848.10599790
  PAW double counting   =     14295.91323732   -12980.49464661
  entropy T*S    EENTRO =        -0.00087687
  eigenvalues    EBANDS =      1646.14047860
  atomic energy  EATOM  =     21129.20924906
  Solvation  Ediel_sol  =         0.00000000
  ---------------------------------------------------
  free energy    TOTEN  =       -81.83407156 eV

  energy without entropy =      -81.83319469  energy(sigma->0) =      -81.83377927


--------------------------------------------------------------------------------------------------------




----------------------------------------- Iteration    1(   3)  ---------------------------------------


     EDDAV:  cpu time 1067.9080: real time 1070.7338
       DOS:  cpu time    0.0520: real time    0.0514
    --------------------------------------------
      LOOP:  cpu time 1067.9840: real time 1070.8315

 eigenvalue-minimisations  : 42456
 total energy-change (2. order) :-0.4201379E+03  (-0.3765359E+03)
 number of electron     432.0000000 magnetization      36.0000000
 augmentation part      432.0000000 magnetization      36.0000000

 Free energy of the ion-electron system (eV)
  ---------------------------------------------------
  alpha Z        PSCENC =      1700.89082154
  Ewald energy   TEWEN  =    -21122.51489899
  -Hartree energ DENC   =     -3902.87143771
  -exchange      EXHF   =         0.00000000
  -V(xc)+E(xc)   XCENC  =      -848.10599790
  PAW double counting   =     14295.91323732   -12980.49464661
  entropy T*S    EENTRO =        -0.06603387
  eigenvalues    EBANDS =      1226.06777828
  atomic energy  EATOM  =     21129.20924906
  Solvation  Ediel_sol  =         0.00000000
  ---------------------------------------------------
  free energy    TOTEN  =      -501.97192889 eV

  energy without entropy =     -501.90589502  energy(sigma->0) =     -501.94991760


--------------------------------------------------------------------------------------------------------




----------------------------------------- Iteration    1(   4)  ---------------------------------------


     EDDAV:  cpu time 1146.0520: real time 1149.2507
       DOS:  cpu time    0.0520: real time    0.0536
    --------------------------------------------
      LOOP:  cpu time 1146.1480: real time 1149.3734

 eigenvalue-minimisations  : 46216
 total energy-change (2. order) :-0.4207598E+02  (-0.3729465E+02)
 number of electron     432.0000000 magnetization      36.0000000
 augmentation part      432.0000000 magnetization      36.0000000

 Free energy of the ion-electron system (eV)
  ---------------------------------------------------
  alpha Z        PSCENC =      1700.89082154
  Ewald energy   TEWEN  =    -21122.51489899
  -Hartree energ DENC   =     -3902.87143771
  -exchange      EXHF   =         0.00000000
  -V(xc)+E(xc)   XCENC  =      -848.10599790
  PAW double counting   =     14295.91323732   -12980.49464661
  entropy T*S    EENTRO =        -0.05534299
  eigenvalues    EBANDS =      1183.98110667
  atomic energy  EATOM  =     21129.20924906
  Solvation  Ediel_sol  =         0.00000000
  ---------------------------------------------------
  free energy    TOTEN  =      -544.04790961 eV

  energy without entropy =     -543.99256662  energy(sigma->0) =     -544.02946195


--------------------------------------------------------------------------------------------------------




----------------------------------------- Iteration    1(   5)  ---------------------------------------


     EDDAV:  cpu time 1208.4640: real time 1211.8936
       DOS:  cpu time    0.0520: real time    0.0540
    CHARGE:  cpu time   44.2240: real time   44.3732
    MIXING:  cpu time    0.1400: real time    0.1397
    --------------------------------------------
      LOOP:  cpu time 1252.9000: real time 1256.5103

 eigenvalue-minimisations  : 48816
 total energy-change (2. order) :-0.2873764E+01  (-0.2711610E+01)
 number of electron     432.0000001 magnetization      39.8198740
 augmentation part       60.2077183 magnetization      21.5404413

 Broyden mixing:
  rms(total) = 0.61293E+01    rms(broyden)= 0.61276E+01
  rms(prec ) = 0.79575E+01
  weight for this iteration     100.00

 Free energy of the ion-electron system (eV)
  ---------------------------------------------------
  alpha Z        PSCENC =      1700.89082154
  Ewald energy   TEWEN  =    -21122.51489899
  -Hartree energ DENC   =     -3902.87143771
  -exchange      EXHF   =         0.00000000
  -V(xc)+E(xc)   XCENC  =      -848.10599790
  PAW double counting   =     14295.91323732   -12980.49464661
  entropy T*S    EENTRO =        -0.05268242
  eigenvalues    EBANDS =      1181.10468250
  atomic energy  EATOM  =     21129.20924906
  Solvation  Ediel_sol  =         0.00000000
  ---------------------------------------------------
  free energy    TOTEN  =      -546.92167321 eV

  energy without entropy =     -546.86899079  energy(sigma->0) =     -546.90411240


--------------------------------------------------------------------------------------------------------




----------------------------------------- Iteration    1(   6)  ---------------------------------------


    POTLOK:  cpu time    1.4920: real time    1.4941
    SETDIJ:  cpu time    2.1720: real time    2.1796
     EDDAV:  cpu time 1105.5880: real time 1109.4889
       DOS:  cpu time    0.0520: real time    0.0544
    CHARGE:  cpu time   44.4560: real time   44.6053
    MIXING:  cpu time    0.0920: real time    0.0949
    --------------------------------------------
      LOOP:  cpu time 1153.8520: real time 1157.9317

 eigenvalue-minimisations  : 43708
 total energy-change (2. order) :-0.6586217E+02  (-0.1403042E+03)
 number of electron     432.0000005 magnetization      39.6356991
 augmentation part      144.3766441 magnetization      33.8342127

 Broyden mixing:
  rms(total) = 0.92635E+01    rms(broyden)= 0.92622E+01
  rms(prec ) = 0.12471E+02
  weight for this iteration     100.00

 eigenvalues of (default mixing * dielectric matrix)
  average eigenvalue GAMMA=   0.4148
  0.4148

 Free energy of the ion-electron system (eV)
  ---------------------------------------------------
  alpha Z        PSCENC =      1700.89082154
  Ewald energy   TEWEN  =    -21122.51489899
  -Hartree energ DENC   =     -3180.75357169
  -exchange      EXHF   =         0.00000000
  -V(xc)+E(xc)   XCENC  =      -859.98226410
  PAW double counting   =     13313.50663326   -11917.15289879
  entropy T*S    EENTRO =        -0.23416616
  eigenvalues    EBANDS =       324.24725403
  atomic energy  EATOM  =     21129.20924906
  Solvation  Ediel_sol  =         0.00000000
  ---------------------------------------------------
  free energy    TOTEN  =      -612.78384186 eV

  energy without entropy =     -612.54967569  energy(sigma->0) =     -612.70578647


--------------------------------------------------------------------------------------------------------




----------------------------------------- Iteration    1(   7)  ---------------------------------------


    POTLOK:  cpu time    1.4480: real time    1.4536
    SETDIJ:  cpu time    2.2560: real time    2.2638
     EDDAV:  cpu time 1136.6120: real time 1140.5598
       DOS:  cpu time    0.0520: real time    0.0518
    CHARGE:  cpu time   44.2400: real time   44.3902
    MIXING:  cpu time    0.1640: real time    0.1626
    --------------------------------------------
      LOOP:  cpu time 1184.7760: real time 1188.8973

 eigenvalue-minimisations  : 45288
 total energy-change (2. order) : 0.1157245E+03  (-0.6133193E+02)
 number of electron     432.0000002 magnetization      39.2385436
 augmentation part       86.3720129 magnetization      18.8802514

 Broyden mixing:
  rms(total) = 0.28690E+01    rms(broyden)= 0.28670E+01
  rms(prec ) = 0.33419E+01
  weight for this iteration     100.00

 eigenvalues of (default mixing * dielectric matrix)
  average eigenvalue GAMMA=   0.3965
  0.3819  0.4110

 Free energy of the ion-electron system (eV)
  ---------------------------------------------------
  alpha Z        PSCENC =      1700.89082154
  Ewald energy   TEWEN  =    -21122.51489899
  -Hartree energ DENC   =     -3618.38312842
  -exchange      EXHF   =         0.00000000
  -V(xc)+E(xc)   XCENC  =      -845.74747517
  PAW double counting   =     14404.38943507   -13084.85444330
  entropy T*S    EENTRO =         0.00824601
  eigenvalues    EBANDS =       939.94283131
  atomic energy  EATOM  =     21129.20924906
  Solvation  Ediel_sol  =         0.00000000
  ---------------------------------------------------
  free energy    TOTEN  =      -497.05936290 eV

  energy without entropy =     -497.06760891  energy(sigma->0) =     -497.06211157


--------------------------------------------------------------------------------------------------------




----------------------------------------- Iteration    1(   8)  ---------------------------------------


    POTLOK:  cpu time    1.4280: real time    1.4308
    SETDIJ:  cpu time    2.1600: real time    2.1666
     EDDAV:  cpu time  990.1880: real time  993.7175
       DOS:  cpu time    0.0560: real time    0.0562
    CHARGE:  cpu time   42.3240: real time   42.4704
    MIXING:  cpu time    0.1240: real time    0.1238
    --------------------------------------------
      LOOP:  cpu time 1036.2800: real time 1039.9910

 eigenvalue-minimisations  : 38456
 total energy-change (2. order) :-0.5161658E+01  (-0.4756817E+01)
 number of electron     432.0000002 magnetization      35.0735559
 augmentation part       84.2575467 magnetization      14.5352960

 Broyden mixing:
  rms(total) = 0.31976E+01    rms(broyden)= 0.31975E+01
  rms(prec ) = 0.39577E+01
  weight for this iteration     100.00

 eigenvalues of (default mixing * dielectric matrix)
  average eigenvalue GAMMA=   0.4348
  0.8203  0.3906  0.0934

 Free energy of the ion-electron system (eV)
  ---------------------------------------------------
  alpha Z        PSCENC =      1700.89082154
  Ewald energy   TEWEN  =    -21122.51489899
  -Hartree energ DENC   =     -3620.04360350
  -exchange      EXHF   =         0.00000000
  -V(xc)+E(xc)   XCENC  =      -846.34580940
  PAW double counting   =     14394.96636445   -13074.93378937
  entropy T*S    EENTRO =         0.01659438
  eigenvalues    EBANDS =       936.53405054
  atomic energy  EATOM  =     21129.20924906
  Solvation  Ediel_sol  =         0.00000000
  ---------------------------------------------------
  free energy    TOTEN  =      -502.22102129 eV

  energy without entropy =     -502.23761567  energy(sigma->0) =     -502.22655275


--------------------------------------------------------------------------------------------------------




----------------------------------------- Iteration    1(   9)  ---------------------------------------


    POTLOK:  cpu time    1.4280: real time    1.4310
    SETDIJ:  cpu time    2.2680: real time    2.2757
     EDDAV:  cpu time 1198.2240: real time 1202.4699
       DOS:  cpu time    0.0560: real time    0.0570
    CHARGE:  cpu time   41.6720: real time   41.8216
    MIXING:  cpu time    0.0720: real time    0.0740
    --------------------------------------------
      LOOP:  cpu time 1243.7200: real time 1248.1345

 eigenvalue-minimisations  : 48480
 total energy-change (2. order) : 0.3839507E+01  (-0.6461679E+00)
 number of electron     432.0000002 magnetization      34.9848300
 augmentation part       86.3658141 magnetization      16.6058596

 Broyden mixing:
  rms(total) = 0.27960E+01    rms(broyden)= 0.27958E+01
  rms(prec ) = 0.31379E+01
  weight for this iteration     100.00

 eigenvalues of (default mixing * dielectric matrix)
  average eigenvalue GAMMA=   0.3097
  0.3852  0.3796  0.3796  0.0942

 Free energy of the ion-electron system (eV)
  ---------------------------------------------------
  alpha Z        PSCENC =      1700.89082154
  Ewald energy   TEWEN  =    -21122.51489899
  -Hartree energ DENC   =     -3629.89809884
  -exchange      EXHF   =         0.00000000
  -V(xc)+E(xc)   XCENC  =      -851.55535140
  PAW double counting   =     14294.32454956   -12966.18880082
  entropy T*S    EENTRO =        -0.04886091
  eigenvalues    EBANDS =       947.39987668
  atomic energy  EATOM  =     21129.20924906
  Solvation  Ediel_sol  =         0.00000000
  ---------------------------------------------------
  free energy    TOTEN  =      -498.38151413 eV

  energy without entropy =     -498.33265322  energy(sigma->0) =     -498.36522716


--------------------------------------------------------------------------------------------------------




----------------------------------------- Iteration    1(  10)  ---------------------------------------


    POTLOK:  cpu time    1.2680: real time    1.2679
    SETDIJ:  cpu time    1.7000: real time    1.7065
     EDDAV:  cpu time 1091.0840: real time 1094.8624
       DOS:  cpu time    0.0520: real time    0.0524
    CHARGE:  cpu time   42.4160: real time   42.5536
    MIXING:  cpu time    0.1240: real time    0.1250
    --------------------------------------------
      LOOP:  cpu time 1136.6440: real time 1140.5736

 eigenvalue-minimisations  : 43440
 total energy-change (2. order) : 0.4990466E-01  (-0.5991339E-01)
 number of electron     432.0000002 magnetization      36.1599250
 augmentation part       86.4567026 magnetization      17.6552300

 Broyden mixing:
  rms(total) = 0.27585E+01    rms(broyden)= 0.27585E+01
  rms(prec ) = 0.30572E+01
  weight for this iteration     100.00

 eigenvalues of (default mixing * dielectric matrix)
  average eigenvalue GAMMA=   0.3904
  0.6983  0.6983  0.3813  0.0973  0.0770

 Free energy of the ion-electron system (eV)
  ---------------------------------------------------
  alpha Z        PSCENC =      1700.89082154
  Ewald energy   TEWEN  =    -21122.51489899
  -Hartree energ DENC   =     -3629.78461103
  -exchange      EXHF   =         0.00000000
  -V(xc)+E(xc)   XCENC  =      -851.62000944
  PAW double counting   =     14293.78264070   -12965.50219676
  entropy T*S    EENTRO =        -0.04639206
  eigenvalues    EBANDS =       947.25378751
  atomic energy  EATOM  =     21129.20924906
  Solvation  Ediel_sol  =         0.00000000
  ---------------------------------------------------
  free energy    TOTEN  =      -498.33160948 eV

  energy without entropy =     -498.28521741  energy(sigma->0) =     -498.31614546


--------------------------------------------------------------------------------------------------------




----------------------------------------- Iteration    1(  11)  ---------------------------------------


    POTLOK:  cpu time    1.4400: real time    1.4455
    SETDIJ:  cpu time    2.2360: real time    2.2383
     EDDAV:  cpu time 1233.9160: real time 1238.2203
       DOS:  cpu time    0.0520: real time    0.0542
    CHARGE:  cpu time   40.5640: real time   40.7074
    MIXING:  cpu time    0.1000: real time    0.1031
    --------------------------------------------
      LOOP:  cpu time 1278.3120: real time 1282.7891

 eigenvalue-minimisations  : 50448
 total energy-change (2. order) :-0.6872335E+00  (-0.1235894E+00)
 number of electron     432.0000002 magnetization      38.3150972
 augmentation part       84.7632211 magnetization      19.0835368

 Broyden mixing:
  rms(total) = 0.28806E+01    rms(broyden)= 0.28805E+01
  rms(prec ) = 0.32071E+01
  weight for this iteration     100.00

 eigenvalues of (default mixing * dielectric matrix)
  average eigenvalue GAMMA=   0.3350
  0.7189  0.7189  0.3817  0.0981  0.0742  0.0181

 Free energy of the ion-electron system (eV)
  ---------------------------------------------------
  alpha Z        PSCENC =      1700.89082154
  Ewald energy   TEWEN  =    -21122.51489899
  -Hartree energ DENC   =     -3632.45981274
  -exchange      EXHF   =         0.00000000
  -V(xc)+E(xc)   XCENC  =      -850.93770526
  PAW double counting   =     14293.80696077   -12968.52354262
  entropy T*S    EENTRO =        -0.04019984
  eigenvalues    EBANDS =       951.55028509
  atomic energy  EATOM  =     21129.20924906
  Solvation  Ediel_sol  =         0.00000000
  ---------------------------------------------------
  free energy    TOTEN  =      -499.01884300 eV

  energy without entropy =     -498.97864316  energy(sigma->0) =     -499.00544306


--------------------------------------------------------------------------------------------------------




----------------------------------------- Iteration    1(  12)  ---------------------------------------


    POTLOK:  cpu time    1.4280: real time    1.4340
    SETDIJ:  cpu time    2.1480: real time    2.1548
     EDDAV:  cpu time 1245.6440: real time 1250.0937
       DOS:  cpu time    0.0520: real time    0.0536
    CHARGE:  cpu time   42.4920: real time   42.6394
    MIXING:  cpu time    0.0920: real time    0.0931
    --------------------------------------------
      LOOP:  cpu time 1291.8640: real time 1296.4759

 eigenvalue-minimisations  : 50976
 total energy-change (2. order) :-0.1417091E+01  (-0.1296530E+00)
 number of electron     432.0000002 magnetization      43.0826739
 augmentation part       83.4208307 magnetization      22.8503141

 Broyden mixing:
  rms(total) = 0.29869E+01    rms(broyden)= 0.29869E+01
  rms(prec ) = 0.34180E+01
  weight for this iteration     100.00

 eigenvalues of (default mixing * dielectric matrix)
  average eigenvalue GAMMA=   0.3623
  0.8690  0.8690  0.3837  0.1185  0.1185  0.0860  0.0915

 Free energy of the ion-electron system (eV)
  ---------------------------------------------------
  alpha Z        PSCENC =      1700.89082154
  Ewald energy   TEWEN  =    -21122.51489899
  -Hartree energ DENC   =     -3628.95579868
  -exchange      EXHF   =         0.00000000
  -V(xc)+E(xc)   XCENC  =      -849.30298863
  PAW double counting   =     14300.46331015   -12979.30897154
  entropy T*S    EENTRO =        -0.03812002
  eigenvalues    EBANDS =       949.12146347
  atomic energy  EATOM  =     21129.20924906
  Solvation  Ediel_sol  =         0.00000000
  ---------------------------------------------------
  free energy    TOTEN  =      -500.43593363 eV

  energy without entropy =     -500.39781361  energy(sigma->0) =     -500.42322696


--------------------------------------------------------------------------------------------------------




----------------------------------------- Iteration    1(  13)  ---------------------------------------


    POTLOK:  cpu time    1.4560: real time    1.4621
    SETDIJ:  cpu time    2.0960: real time    2.1016
     EDDAV:  cpu time 1204.7480: real time 1209.0365
       DOS:  cpu time    0.0520: real time    0.0537
    CHARGE:  cpu time   42.4800: real time   42.5988
    MIXING:  cpu time    0.0960: real time    0.0985
    --------------------------------------------
      LOOP:  cpu time 1250.9280: real time 1255.3575

 eigenvalue-minimisations  : 49000
 total energy-change (2. order) :-0.3410891E+01  (-0.3178931E+00)
 number of electron     432.0000002 magnetization      60.2576282
 augmentation part       81.2343420 magnetization      37.8632037

 Broyden mixing:
  rms(total) = 0.31069E+01    rms(broyden)= 0.31069E+01
  rms(prec ) = 0.35999E+01
  weight for this iteration     100.00

 eigenvalues of (default mixing * dielectric matrix)
  average eigenvalue GAMMA=   0.5803
  1.6216  1.6216  0.3732  0.3772  0.3772  0.0920  0.0920  0.0874

 Free energy of the ion-electron system (eV)
  ---------------------------------------------------
  alpha Z        PSCENC =      1700.89082154
  Ewald energy   TEWEN  =    -21122.51489899
  -Hartree energ DENC   =     -3618.99503919
  -exchange      EXHF   =         0.00000000
  -V(xc)+E(xc)   XCENC  =      -845.15146140
  PAW double counting   =     14316.43089026   -13003.38556071
  entropy T*S    EENTRO =         0.04803081
  eigenvalues    EBANDS =       939.62114361
  atomic energy  EATOM  =     21129.20924906
  Solvation  Ediel_sol  =         0.00000000
  ---------------------------------------------------
  free energy    TOTEN  =      -503.84682502 eV

  energy without entropy =     -503.89485582  energy(sigma->0) =     -503.86283529


--------------------------------------------------------------------------------------------------------




----------------------------------------- Iteration    1(  14)  ---------------------------------------


    POTLOK:  cpu time    1.4720: real time    1.4767
    SETDIJ:  cpu time    2.1400: real time    2.1440
     EDDAV:  cpu time 1178.1360: real time 1182.3224
       DOS:  cpu time    0.0520: real time    0.0520
    CHARGE:  cpu time   44.5360: real time   44.6850
    MIXING:  cpu time    0.1400: real time    0.1413
    --------------------------------------------
      LOOP:  cpu time 1226.4800: real time 1230.8278

 eigenvalue-minimisations  : 47800
 total energy-change (2. order) :-0.1710977E+02  (-0.2427778E+01)
 number of electron     432.0000002 magnetization      68.9089507
 augmentation part       75.7082146 magnetization      41.2877807

 Broyden mixing:
  rms(total) = 0.34946E+01    rms(broyden)= 0.34943E+01
  rms(prec ) = 0.45639E+01
  weight for this iteration     100.00

 eigenvalues of (default mixing * dielectric matrix)
  average eigenvalue GAMMA=   0.5730
  1.7132  1.7132  0.4361  0.4361  0.3769  0.2095  0.0925  0.0925  0.0869

 Free energy of the ion-electron system (eV)
  ---------------------------------------------------
  alpha Z        PSCENC =      1700.89082154
  Ewald energy   TEWEN  =    -21122.51489899
  -Hartree energ DENC   =     -3587.99312999
  -exchange      EXHF   =         0.00000000
  -V(xc)+E(xc)   XCENC  =      -826.93518255
  PAW double counting   =     14361.48282984   -13072.19118860
  entropy T*S    EENTRO =         0.05180027
  eigenvalues    EBANDS =       897.04310038
  atomic energy  EATOM  =     21129.20924906
  Solvation  Ediel_sol  =         0.00000000
  ---------------------------------------------------
  free energy    TOTEN  =      -520.95659903 eV

  energy without entropy =     -521.00839931  energy(sigma->0) =     -520.97386579


--------------------------------------------------------------------------------------------------------




----------------------------------------- Iteration    1(  15)  ---------------------------------------


    POTLOK:  cpu time    1.3760: real time    1.3772
    SETDIJ:  cpu time    2.2080: real time    2.2146
     EDDAV:  cpu time 1217.9040: real time 1222.1448
       DOS:  cpu time    0.0560: real time    0.0557
    CHARGE:  cpu time   44.5480: real time   44.6936
    MIXING:  cpu time    0.0920: real time    0.0932
    --------------------------------------------
      LOOP:  cpu time 1266.1840: real time 1270.5845

 eigenvalue-minimisations  : 49760
 total energy-change (2. order) :-0.7182837E+01  (-0.8722701E+00)
 number of electron     432.0000001 magnetization      76.2873039
 augmentation part       73.7952235 magnetization      46.3927197

 Broyden mixing:
  rms(total) = 0.33379E+01    rms(broyden)= 0.33378E+01
  rms(prec ) = 0.44176E+01
  weight for this iteration     100.00

 eigenvalues of (default mixing * dielectric matrix)
  average eigenvalue GAMMA=   0.6089
  1.7479  1.7479  0.6791  0.6791  0.4858  0.3441  0.1336  0.0923  0.0923  0.0871

 Free energy of the ion-electron system (eV)
  ---------------------------------------------------
  alpha Z        PSCENC =      1700.89082154
  Ewald energy   TEWEN  =    -21122.51489899
  -Hartree energ DENC   =     -3571.90179457
  -exchange      EXHF   =         0.00000000
  -V(xc)+E(xc)   XCENC  =      -815.76497443
  PAW double counting   =     14398.35078299   -13119.83986794
  entropy T*S    EENTRO =         0.03011950
  eigenvalues    EBANDS =       873.40112647
  atomic energy  EATOM  =     21129.20924906
  Solvation  Ediel_sol  =         0.00000000
  ---------------------------------------------------
  free energy    TOTEN  =      -528.13943638 eV

  energy without entropy =     -528.16955588  energy(sigma->0) =     -528.14947621


--------------------------------------------------------------------------------------------------------




----------------------------------------- Iteration    1(  16)  ---------------------------------------


    POTLOK:  cpu time    1.5720: real time    1.5759
    SETDIJ:  cpu time    2.2840: real time    2.2913
     EDDAV:  cpu time 1157.7400: real time 1161.7964
       DOS:  cpu time    0.0520: real time    0.0518
    CHARGE:  cpu time   43.5240: real time   43.6852
    MIXING:  cpu time    0.1440: real time    0.1424
    --------------------------------------------
      LOOP:  cpu time 1205.3200: real time 1209.5491

 eigenvalue-minimisations  : 46656
 total energy-change (2. order) : 0.9457664E+01  (-0.1127663E+01)
 number of electron     432.0000002 magnetization      78.3269672
 augmentation part       78.8435132 magnetization      48.7815495

 Broyden mixing:
  rms(total) = 0.24264E+01    rms(broyden)= 0.24262E+01
  rms(prec ) = 0.32094E+01
  weight for this iteration     100.00

 eigenvalues of (default mixing * dielectric matrix)
  average eigenvalue GAMMA=   0.6122
  1.7974  1.7974  0.7970  0.7970  0.3677  0.3858  0.3858  0.1347  0.0924  0.0924
  0.0868

 Free energy of the ion-electron system (eV)
  ---------------------------------------------------
  alpha Z        PSCENC =      1700.89082154
  Ewald energy   TEWEN  =    -21122.51489899
  -Hartree energ DENC   =     -3537.86466803
  -exchange      EXHF   =         0.00000000
  -V(xc)+E(xc)   XCENC  =      -810.91123521
  PAW double counting   =     14573.61963537   -13294.42297215
  entropy T*S    EENTRO =         0.02902888
  eigenvalues    EBANDS =       843.28326706
  atomic energy  EATOM  =     21129.20924906
  Solvation  Ediel_sol  =         0.00000000
  ---------------------------------------------------
  free energy    TOTEN  =      -518.68177248 eV

  energy without entropy =     -518.71080136  energy(sigma->0) =     -518.69144877


--------------------------------------------------------------------------------------------------------




----------------------------------------- Iteration    1(  17)  ---------------------------------------


    POTLOK:  cpu time    1.5080: real time    1.5135
    SETDIJ:  cpu time    2.3080: real time    2.3156
     EDDAV:  cpu time 1255.7400: real time 1259.9781
       DOS:  cpu time    0.0560: real time    0.0534
    CHARGE:  cpu time   43.7480: real time   43.8943
    MIXING:  cpu time    0.1360: real time    0.1346
    --------------------------------------------
      LOOP:  cpu time 1303.4960: real time 1307.8997

 eigenvalue-minimisations  : 50984
 total energy-change (2. order) : 0.2930756E+01  (-0.3993356E+00)
 number of electron     432.0000002 magnetization      86.0439048
 augmentation part       80.7941331 magnetization      56.8491809

 Broyden mixing:
  rms(total) = 0.20860E+01    rms(broyden)= 0.20859E+01
  rms(prec ) = 0.27237E+01
  weight for this iteration     100.00

 eigenvalues of (default mixing * dielectric matrix)
  average eigenvalue GAMMA=   0.6242
  1.8754  1.8754  0.9501  0.9501  0.4518  0.4518  0.3595  0.0924  0.0924  0.0869
  0.1717  0.1331

 Free energy of the ion-electron system (eV)
  ---------------------------------------------------
  alpha Z        PSCENC =      1700.89082154
  Ewald energy   TEWEN  =    -21122.51489899
  -Hartree energ DENC   =     -3531.40100291
  -exchange      EXHF   =         0.00000000
  -V(xc)+E(xc)   XCENC  =      -809.97774444
  PAW double counting   =     14618.86510804   -13338.28040221
  entropy T*S    EENTRO =         0.02516312
  eigenvalues    EBANDS =       837.43269079
  atomic energy  EATOM  =     21129.20924906
  Solvation  Ediel_sol  =         0.00000000
  ---------------------------------------------------
  free energy    TOTEN  =      -515.75101600 eV

  energy without entropy =     -515.77617913  energy(sigma->0) =     -515.75940371


--------------------------------------------------------------------------------------------------------




----------------------------------------- Iteration    1(  18)  ---------------------------------------


    POTLOK:  cpu time    1.5880: real time    1.5944
    SETDIJ:  cpu time    2.1000: real time    2.1082
     EDDAV:  cpu time 1160.6840: real time 1165.0545
       DOS:  cpu time    0.0520: real time    0.0525
    CHARGE:  cpu time   43.6120: real time   43.8006
    MIXING:  cpu time    0.1360: real time    0.1378
    --------------------------------------------
      LOOP:  cpu time 1208.1720: real time 1212.7552

 eigenvalue-minimisations  : 44888
 total energy-change (2. order) : 0.5066335E+01  (-0.1040195E+01)
 number of electron     432.0000002 magnetization      95.7571408
 augmentation part       85.6888816 magnetization      67.1569194

 Broyden mixing:
  rms(total) = 0.13048E+01    rms(broyden)= 0.13047E+01
  rms(prec ) = 0.15798E+01
  weight for this iteration     100.00

 eigenvalues of (default mixing * dielectric matrix)
  average eigenvalue GAMMA=   0.7082
  1.7255  1.7255  1.6127  1.6127  0.5399  0.5399  0.5349  0.3560  0.0924  0.0924
  0.0869  0.1338  0.1537

 Free energy of the ion-electron system (eV)
  ---------------------------------------------------
  alpha Z        PSCENC =      1700.89082154
  Ewald energy   TEWEN  =    -21122.51489899
  -Hartree energ DENC   =     -3518.38429486
  -exchange      EXHF   =         0.00000000
  -V(xc)+E(xc)   XCENC  =      -805.19860893
  PAW double counting   =     14739.71430215   -13456.45324995
  entropy T*S    EENTRO =         0.02570708
  eigenvalues    EBANDS =       822.02629169
  atomic energy  EATOM  =     21129.20924906
  Solvation  Ediel_sol  =         0.00000000
  ---------------------------------------------------
  free energy    TOTEN  =      -510.68468122 eV

  energy without entropy =     -510.71038830  energy(sigma->0) =     -510.69325024


--------------------------------------------------------------------------------------------------------




----------------------------------------- Iteration    1(  19)  ---------------------------------------


    POTLOK:  cpu time    1.5640: real time    1.5683
    SETDIJ:  cpu time    2.1360: real time    2.1417
     EDDAV:  cpu time 1277.1720: real time 1281.2782
       DOS:  cpu time    0.0520: real time    0.0551
    CHARGE:  cpu time   41.8080: real time   41.9346
    MIXING:  cpu time    0.1120: real time    0.1109
    --------------------------------------------
      LOOP:  cpu time 1322.8440: real time 1327.0939

 eigenvalue-minimisations  : 50208
 total energy-change (2. order) :-0.1625828E+00  (-0.4645502E+00)
 number of electron     432.0000002 magnetization     108.1852232
 augmentation part       87.6172425 magnetization      79.0838127

 Broyden mixing:
  rms(total) = 0.11012E+01    rms(broyden)= 0.11009E+01
  rms(prec ) = 0.14516E+01
  weight for this iteration     100.00

 eigenvalues of (default mixing * dielectric matrix)
  average eigenvalue GAMMA=   0.7234
  2.0796  2.0796  1.5874  1.5874  0.5526  0.5526  0.5816  0.3567  0.0869  0.0924
  0.0924  0.1924  0.1335  0.1533

 Free energy of the ion-electron system (eV)
  ---------------------------------------------------
  alpha Z        PSCENC =      1700.89082154
  Ewald energy   TEWEN  =    -21122.51489899
  -Hartree energ DENC   =     -3510.92203380
  -exchange      EXHF   =         0.00000000
  -V(xc)+E(xc)   XCENC  =      -794.69439599
  PAW double counting   =     14810.67961533   -13531.05436747
  entropy T*S    EENTRO =         0.01008757
  eigenvalues    EBANDS =       807.54865872
  atomic energy  EATOM  =     21129.20924906
  Solvation  Ediel_sol  =         0.00000000
  ---------------------------------------------------
  free energy    TOTEN  =      -510.84726403 eV

  energy without entropy =     -510.85735161  energy(sigma->0) =     -510.85062656


--------------------------------------------------------------------------------------------------------




----------------------------------------- Iteration    1(  20)  ---------------------------------------


    POTLOK:  cpu time    1.5880: real time    1.5923
    SETDIJ:  cpu time    2.1520: real time    2.1559
     EDDAV:  cpu time 1263.3200: real time 1267.8908
       DOS:  cpu time    0.0520: real time    0.0526
    CHARGE:  cpu time   40.6600: real time   40.8178
    MIXING:  cpu time    0.1080: real time    0.1071
    --------------------------------------------
      LOOP:  cpu time 1307.8800: real time 1312.6216

 eigenvalue-minimisations  : 49688
 total energy-change (2. order) : 0.7581957E+00  (-0.4164001E+00)
 number of electron     432.0000002 magnetization     106.0878732
 augmentation part       89.4466085 magnetization      76.1357488

 Broyden mixing:
  rms(total) = 0.72722E+00    rms(broyden)= 0.72691E+00
  rms(prec ) = 0.87066E+00
  weight for this iteration     100.00

 eigenvalues of (default mixing * dielectric matrix)
  average eigenvalue GAMMA=   0.7157
  1.9865  1.9865  1.6079  1.6079  0.6957  0.6957  0.5327  0.5327  0.3557  0.0924
  0.0924  0.0869  0.1337  0.1760  0.1522

 Free energy of the ion-electron system (eV)
  ---------------------------------------------------
  alpha Z        PSCENC =      1700.89082154
  Ewald energy   TEWEN  =    -21122.51489899
  -Hartree energ DENC   =     -3502.20291387
  -exchange      EXHF   =         0.00000000
  -V(xc)+E(xc)   XCENC  =      -779.26254667
  PAW double counting   =     14892.45372454   -13618.53745103
  entropy T*S    EENTRO =        -0.01099699
  eigenvalues    EBANDS =       789.88594412
  atomic energy  EATOM  =     21129.20924906
  Solvation  Ediel_sol  =         0.00000000
  ---------------------------------------------------
  free energy    TOTEN  =      -510.08906830 eV

  energy without entropy =     -510.07807131  energy(sigma->0) =     -510.08540264


--------------------------------------------------------------------------------------------------------




----------------------------------------- Iteration    1(  21)  ---------------------------------------


    POTLOK:  cpu time    1.5280: real time    1.5315
    SETDIJ:  cpu time    2.0280: real time    2.0343
     EDDAV:  cpu time 1202.0800: real time 1206.6707
       DOS:  cpu time    0.0560: real time    0.0555
    CHARGE:  cpu time   44.6160: real time   44.7769
    MIXING:  cpu time    0.0920: real time    0.0956
    --------------------------------------------
      LOOP:  cpu time 1250.4000: real time 1255.1778

 eigenvalue-minimisations  : 46864
 total energy-change (2. order) : 0.6197177E-02  (-0.7598987E-01)
 number of electron     432.0000002 magnetization     105.5185561
 augmentation part       90.1415899 magnetization      76.0800875

 Broyden mixing:
  rms(total) = 0.66448E+00    rms(broyden)= 0.66444E+00
  rms(prec ) = 0.83070E+00
  weight for this iteration     100.00

 eigenvalues of (default mixing * dielectric matrix)
  average eigenvalue GAMMA=   0.7053
  2.0590  2.0590  1.5811  1.5811  0.7761  0.7761  0.5181  0.5181  0.3507  0.3355
  0.0924  0.0924  0.0869  0.1337  0.1525  0.1725

 Free energy of the ion-electron system (eV)
  ---------------------------------------------------
  alpha Z        PSCENC =      1700.89082154
  Ewald energy   TEWEN  =    -21122.51489899
  -Hartree energ DENC   =     -3502.41906644
  -exchange      EXHF   =         0.00000000
  -V(xc)+E(xc)   XCENC  =      -782.94365608
  PAW double counting   =     14887.59235586   -13612.02979396
  entropy T*S    EENTRO =         0.00361066
  eigenvalues    EBANDS =       792.12850722
  atomic energy  EATOM  =     21129.20924906
  Solvation  Ediel_sol  =         0.00000000
  ---------------------------------------------------
  free energy    TOTEN  =      -510.08287112 eV

  energy without entropy =     -510.08648178  energy(sigma->0) =     -510.08407467


--------------------------------------------------------------------------------------------------------




----------------------------------------- Iteration    1(  22)  ---------------------------------------


    POTLOK:  cpu time    1.4040: real time    1.4115
    SETDIJ:  cpu time    2.3200: real time    2.3259
     EDDAV:  cpu time 1157.8280: real time 1161.4147
       DOS:  cpu time    0.0520: real time    0.0533
    CHARGE:  cpu time   42.0520: real time   42.1998
    MIXING:  cpu time    0.1400: real time    0.1378
    --------------------------------------------
      LOOP:  cpu time 1203.8000: real time 1207.5487

 eigenvalue-minimisations  : 44232
 total energy-change (2. order) : 0.7733518E-01  (-0.2408796E-01)
 number of electron     432.0000002 magnetization     106.8878607
 augmentation part       90.2868068 magnetization      77.5447397

 Broyden mixing:
  rms(total) = 0.59987E+00    rms(broyden)= 0.59985E+00
  rms(prec ) = 0.75048E+00
  weight for this iteration     100.00

 eigenvalues of (default mixing * dielectric matrix)
  average eigenvalue GAMMA=   0.7319
  2.2692  2.2692  1.5579  1.5579  1.0109  0.8872  0.5285  0.5285  0.5435  0.3566
  0.0869  0.0924  0.0924  0.2000  0.1337  0.1750  0.1523

 Free energy of the ion-electron system (eV)
  ---------------------------------------------------
  alpha Z        PSCENC =      1700.89082154
  Ewald energy   TEWEN  =    -21122.51489899
  -Hartree energ DENC   =     -3502.69441237
  -exchange      EXHF   =         0.00000000
  -V(xc)+E(xc)   XCENC  =      -783.88353037
  PAW double counting   =     14883.71740817   -13608.25021974
  entropy T*S    EENTRO =         0.00673366
  eigenvalues    EBANDS =       793.51331311
  atomic energy  EATOM  =     21129.20924906
  Solvation  Ediel_sol  =         0.00000000
  ---------------------------------------------------
  free energy    TOTEN  =      -510.00553594 eV

  energy without entropy =     -510.01226960  energy(sigma->0) =     -510.00778049


--------------------------------------------------------------------------------------------------------




----------------------------------------- Iteration    1(  23)  ---------------------------------------


    POTLOK:  cpu time    1.6120: real time    1.6159
    SETDIJ:  cpu time    2.0360: real time    2.0443
     EDDAV:  cpu time 1004.6120: real time 1007.8344
       DOS:  cpu time    0.0520: real time    0.0515
    CHARGE:  cpu time   42.3320: real time   42.4527
    MIXING:  cpu time    0.1000: real time    0.1036
    --------------------------------------------
      LOOP:  cpu time 1050.7440: real time 1054.1076

 eigenvalue-minimisations  : 37212
 total energy-change (2. order) : 0.1819833E+00  (-0.4235884E-01)
 number of electron     432.0000002 magnetization     106.8947194
 augmentation part       90.2163932 magnetization      77.3972279

 Broyden mixing:
  rms(total) = 0.44452E+00    rms(broyden)= 0.44449E+00
  rms(prec ) = 0.56569E+00
[...]
    FORCOR:  cpu time    0.9840: real time    0.9856
    FORHAR:  cpu time    0.1920: real time    0.1938
    MIXING:  cpu time    0.0600: real time    0.0592
    OFIELD:  cpu time    0.0000: real time    0.0001

  FORCE on cell =-STRESS in cart. coord.  units (eV):
  Direction    XX          YY          ZZ          XY          YZ          ZX
  --------------------------------------------------------------------------------------
  Alpha Z  1700.89082  1700.89082  1700.89082
  Ewald   -7519.77385 -7519.35476 -6083.51325     0.00000    -0.97762    -0.00000
  Hartree   863.55174   863.84106  1785.19690    -0.00000    -0.23287    -0.00000
  E(xc)   -1890.10209 -1890.10174 -1899.94033     0.00004     0.01601     0.00000
  Local    1209.80780  1209.05276 -1206.54054    -0.00054     1.15321     0.00000
  n-local   475.94862   475.94216   451.63261    -0.12717    -0.05917    -0.00063
  augment  1017.92711  1017.93242  1058.63414     0.00060    -0.00234     0.00000
  Kinetic  4141.88083  4141.85973  4193.66651     1.39283    -0.00618     0.00021
  Fock        0.00000     0.00000     0.00000     0.00000     0.00000     0.00000
  -------------------------------------------------------------------------------------
  Total       0.13098     0.06245     0.02687     0.00000    -0.10895     0.00000
  in kB       0.18180     0.08668     0.03729     0.00000    -0.15122     0.00000
  external pressure =        0.10 kB  Pullay stress =        0.00 kB


 VOLUME and BASIS-vectors are now :
 -----------------------------------------------------------------------------
  energy-cutoff  :      320.00
  volume of cell :     1154.33
      direct lattice vectors                 reciprocal lattice vectors
    11.000217144  0.000000000  0.000000000     0.090907296  0.052485352 -0.000000000
    -5.500108572  9.526467494  0.000000000     0.000000000  0.104970704  0.000000000
     0.000000000  0.000000000 11.015273102     0.000000000 -0.000000000  0.090783042

  length of vectors
    11.000217144 11.000217144 11.015273102     0.104970704  0.104970704  0.090783042


 FORCES acting on ions
    electron-ion (+dipol)            ewald-force                    non-local-force                 convergence-correction
 -----------------------------------------------------------------------------------------------
   0.189E-01 -.187E+01 0.103E-01   -.821E-02 0.191E+01 -.799E-14   -.130E-01 -.406E-01 -.992E-02   0.309E-04 0.244E-04 -.172E-04
   0.116E+00 0.189E+01 -.117E-01   -.105E+00 -.193E+01 0.568E-12   -.139E-01 0.438E-01 0.111E-01   -.268E-04 0.439E-04 -.124E-04
   -.616E+00 0.232E-01 -.840E-03   0.613E+00 -.230E-01 0.117E-11   0.715E-02 -.370E-03 -.419E-03   -.590E-05 -.156E-04 -.170E-06
   -.309E+01 -.108E-05 0.769E-06   0.316E+01 -.981E-11 -.613E-12   -.804E-01 0.000E+00 0.000E+00   0.438E-04 -.196E-08 -.551E-09
   0.126E+02 -.266E-05 0.616E-06   -.128E+02 0.143E-11 0.603E-12   -.394E+00 0.000E+00 0.000E+00   0.160E-04 0.264E-09 -.452E-09
   -.330E+01 0.218E-05 -.128E-05   0.338E+01 0.983E-11 0.575E-12   -.924E-01 0.000E+00 0.000E+00   -.722E-04 0.496E-08 0.714E-09
   -.616E+00 -.232E-01 0.840E-03   0.613E+00 0.230E-01 -.119E-11   0.715E-02 0.370E-03 0.419E-03   -.590E-05 0.156E-04 0.170E-06
   0.189E-01 0.187E+01 -.103E-01   -.821E-02 -.191E+01 -.641E-12   -.130E-01 0.406E-01 0.992E-02   0.309E-04 -.244E-04 0.172E-04
   0.116E+00 -.189E+01 0.117E-01   -.105E+00 0.193E+01 0.124E-13   -.139E-01 -.438E-01 -.111E-01   -.268E-04 -.439E-04 0.124E-04
   0.859E-01 -.202E+00 -.336E-02   -.823E-01 0.200E+00 -.160E-13   -.356E-02 0.280E-02 0.627E-02   -.539E-04 -.667E-04 0.192E-04
   0.981E-01 0.196E+00 0.341E-02   -.944E-01 -.195E+00 0.632E-12   -.295E-02 -.285E-02 -.647E-02   0.515E-04 -.730E-04 0.112E-04
   -.193E+00 0.587E-02 -.336E-04   0.180E+00 -.566E-02 0.112E-11   0.598E-02 -.284E-03 0.164E-03   0.245E-05 0.208E-04 0.403E-05
   -.261E+00 0.521E-08 -.215E-08   0.262E+00 -.980E-11 -.573E-12   0.143E-02 0.000E+00 0.000E+00   -.100E-03 -.179E-08 0.152E-08
   0.528E+00 -.470E-07 -.732E-08   -.522E+00 0.142E-13 -.115E-13   -.806E-02 0.000E+00 0.000E+00   -.916E-05 0.122E-08 -.434E-09
   -.245E+00 -.188E-08 0.486E-08   0.246E+00 0.984E-11 0.525E-12   0.183E-02 0.000E+00 0.000E+00   0.109E-03 -.897E-09 -.111E-08
   -.193E+00 -.587E-02 0.336E-04   0.180E+00 0.566E-02 -.113E-11   0.598E-02 0.284E-03 -.164E-03   0.244E-05 -.208E-04 -.403E-05
   0.859E-01 0.202E+00 0.336E-02   -.823E-01 -.200E+00 -.668E-12   -.356E-02 -.280E-02 -.627E-02   -.539E-04 0.667E-04 -.192E-04
   0.981E-01 -.196E+00 -.341E-02   -.944E-01 0.195E+00 -.213E-13   -.295E-02 0.285E-02 0.647E-02   0.515E-04 0.730E-04 -.112E-04
   0.103E+00 -.673E+00 -.447E+00   -.125E+00 0.659E+00 0.433E+00   0.210E-01 0.182E-01 0.157E-01   -.176E-04 -.355E-04 -.647E-04
   0.140E+00 0.668E+00 0.445E+00   -.164E+00 -.652E+00 -.431E+00   0.218E-01 -.194E-01 -.160E-01   0.344E-04 -.222E-04 -.646E-04
   -.370E+00 0.136E-01 0.665E-02   0.364E+00 -.127E-01 -.603E-02   0.628E-02 -.104E-02 -.116E-02   -.172E-04 0.173E-04 -.771E-04
   -.986E+00 0.130E-01 -.830E+00   0.992E+00 -.980E-11 0.832E+00   0.673E-03 -.115E-01 -.113E-02   -.621E-04 -.605E-05 -.972E-04
   0.310E+01 -.151E-02 -.177E+00   -.313E+01 0.160E-13 0.177E+00   0.254E-01 0.968E-03 0.247E-02   0.211E-04 -.131E-04 0.254E-03
   -.991E+00 -.940E-02 0.900E+00   0.992E+00 0.983E-11 -.899E+00   0.374E-02 0.101E-01 -.224E-02   0.434E-04 -.196E-04 -.114E-03
   -.365E+00 -.132E-01 0.637E-02   0.364E+00 0.127E-01 -.603E-02   0.119E-02 0.597E-03 -.369E-03   0.358E-06 -.408E-05 -.727E-04
   0.118E+00 0.622E+00 -.418E+00   -.125E+00 -.659E+00 0.433E+00   0.558E-02 0.310E-01 -.154E-01   -.274E-04 0.499E-04 -.619E-04
   0.158E+00 -.617E+00 0.417E+00   -.164E+00 0.652E+00 -.431E+00   0.436E-02 -.316E-01 0.153E-01   0.263E-04 0.327E-04 -.660E-04
   0.118E+00 -.622E+00 0.418E+00   -.125E+00 0.659E+00 -.433E+00   0.558E-02 -.310E-01 0.154E-01   -.274E-04 -.499E-04 0.619E-04
   0.158E+00 0.617E+00 -.417E+00   -.164E+00 -.652E+00 0.431E+00   0.436E-02 0.316E-01 -.153E-01   0.263E-04 -.327E-04 0.660E-04
   -.365E+00 0.132E-01 -.637E-02   0.364E+00 -.127E-01 0.603E-02   0.119E-02 -.597E-03 0.369E-03   0.357E-06 0.408E-05 0.727E-04
   -.986E+00 -.130E-01 0.830E+00   0.992E+00 -.981E-11 -.832E+00   0.673E-03 0.115E-01 0.113E-02   -.621E-04 0.605E-05 0.972E-04
   0.310E+01 0.151E-02 0.177E+00   -.313E+01 0.213E-13 -.177E+00   0.254E-01 -.968E-03 -.247E-02   0.211E-04 0.131E-04 -.254E-03
   -.991E+00 0.940E-02 -.900E+00   0.992E+00 0.984E-11 0.899E+00   0.374E-02 -.101E-01 0.224E-02   0.434E-04 0.196E-04 0.114E-03
   -.370E+00 -.136E-01 -.665E-02   0.364E+00 0.127E-01 0.603E-02   0.628E-02 0.104E-02 0.116E-02   -.172E-04 -.173E-04 0.771E-04
   0.103E+00 0.673E+00 0.447E+00   -.125E+00 -.659E+00 -.433E+00   0.210E-01 -.182E-01 -.157E-01   -.176E-04 0.355E-04 0.647E-04
   0.140E+00 -.668E+00 -.445E+00   -.164E+00 0.652E+00 0.431E+00   0.218E-01 0.194E-01 0.160E-01   0.344E-04 0.222E-04 0.646E-04
   0.867E-01 -.662E-02 -.172E-02   -.837E-01 0.641E-02 0.183E-02   -.123E-02 0.393E-04 -.373E-03   -.530E-05 -.131E-04 -.282E-04
   -.448E-01 0.181E+00 0.275E-01   0.403E-01 -.181E+00 -.250E-01   0.569E-02 0.414E-02 -.512E-02   -.120E-04 0.131E-04 -.417E-04
   -.458E-01 -.174E+00 -.253E-01   0.415E-01 0.175E+00 0.233E-01   0.388E-02 -.384E-02 0.496E-02   0.172E-04 0.620E-05 -.388E-04
   0.135E+00 -.146E+00 -.417E+00   -.135E+00 0.147E+00 0.418E+00   -.321E-02 -.155E-02 -.768E-02   -.143E-03 -.796E-04 0.142E-04
   0.166E+00 0.145E+00 0.418E+00   -.166E+00 -.145E+00 -.416E+00   -.292E-02 0.136E-02 0.394E-02   0.153E-03 -.685E-04 0.264E-04
   -.353E+00 0.339E-02 0.691E-02   0.350E+00 -.275E-02 -.613E-02   -.203E-02 -.169E-02 -.120E-02   -.106E-04 0.279E-04 -.333E-04
   -.199E+00 0.158E+00 -.173E+00   0.194E+00 -.154E+00 0.165E+00   0.981E-02 -.627E-02 0.172E-01   -.304E-04 -.103E-04 -.460E-04
   0.402E+00 0.765E-02 -.930E-02   -.404E+00 -.820E-02 0.112E-01   -.497E-03 0.594E-03 -.183E-02   0.762E-05 0.141E-03 0.133E-05
   -.188E+00 -.165E+00 0.183E+00   0.185E+00 0.161E+00 -.175E+00   0.908E-02 0.608E-02 -.185E-01   0.231E-04 -.169E-04 -.350E-04
   0.285E+00 -.212E-01 0.436E-02   -.287E+00 0.216E-01 -.432E-02   0.340E-02 -.790E-03 -.503E-03   0.257E-05 -.117E-05 0.290E-04
   -.126E+00 0.473E+00 -.396E-01   0.130E+00 -.476E+00 0.384E-01   -.526E-02 0.274E-02 0.293E-03   0.392E-05 -.126E-04 0.520E-04
   -.127E+00 -.455E+00 0.356E-01   0.128E+00 0.458E+00 -.350E-01   -.326E-02 -.234E-02 -.305E-03   -.644E-05 -.941E-05 0.454E-04
   -.207E+01 -.272E+01 0.349E+01   0.204E+01 0.271E+01 -.349E+01   0.164E+00 0.782E-01 -.104E+00   0.762E-04 0.445E-04 -.712E-04
   -.199E+01 0.299E+01 -.383E+01   0.195E+01 -.296E+01 0.381E+01   0.229E+00 -.127E+00 0.167E+00   -.856E-04 0.535E-04 -.699E-04
   -.931E+00 0.746E-02 -.114E-01   0.939E+00 -.942E-02 0.110E-01   -.898E-02 0.137E-02 -.486E-03   0.796E-06 -.415E-05 0.949E-04
   -.809E+00 0.610E+00 0.355E+00   0.803E+00 -.608E+00 -.351E+00   0.614E-02 -.127E-02 -.514E-02   0.113E-04 0.740E-05 0.642E-04
   0.290E+01 0.152E+00 0.986E-01   -.289E+01 -.153E+00 -.982E-01   0.215E-01 -.720E-02 -.594E-02   0.260E-05 -.814E-04 -.759E-04
   -.820E+00 -.661E+00 -.387E+00   0.812E+00 0.657E+00 0.381E+00   0.118E-01 0.541E-02 0.653E-02   -.110E-04 0.353E-05 0.749E-04
   -.809E+00 -.610E+00 -.355E+00   0.803E+00 0.608E+00 0.351E+00   0.614E-02 0.127E-02 0.514E-02   0.113E-04 -.740E-05 -.642E-04
   0.290E+01 -.152E+00 -.986E-01   -.289E+01 0.153E+00 0.982E-01   0.215E-01 0.720E-02 0.594E-02   0.260E-05 0.814E-04 0.759E-04
   -.820E+00 0.661E+00 0.387E+00   0.812E+00 -.657E+00 -.381E+00   0.118E-01 -.541E-02 -.653E-02   -.110E-04 -.353E-05 -.749E-04
   -.931E+00 -.746E-02 0.114E-01   0.939E+00 0.942E-02 -.110E-01   -.898E-02 -.137E-02 0.486E-03   0.796E-06 0.415E-05 -.949E-04
   -.207E+01 0.272E+01 -.349E+01   0.204E+01 -.271E+01 0.349E+01   0.164E+00 -.782E-01 0.104E+00   0.762E-04 -.445E-04 0.712E-04
   -.199E+01 -.299E+01 0.383E+01   0.195E+01 0.296E+01 -.381E+01   0.229E+00 0.127E+00 -.167E+00   -.856E-04 -.535E-04 0.699E-04
   -.126E+00 -.473E+00 0.396E-01   0.130E+00 0.476E+00 -.384E-01   -.526E-02 -.274E-02 -.293E-03   0.392E-05 0.126E-04 -.520E-04
   -.127E+00 0.455E+00 -.356E-01   0.128E+00 -.458E+00 0.350E-01   -.326E-02 0.234E-02 0.305E-03   -.644E-05 0.941E-05 -.454E-04
   0.285E+00 0.212E-01 -.436E-02   -.287E+00 -.216E-01 0.432E-02   0.340E-02 0.790E-03 0.503E-03   0.257E-05 0.117E-05 -.290E-04
   -.199E+00 -.158E+00 0.173E+00   0.194E+00 0.154E+00 -.165E+00   0.981E-02 0.627E-02 -.172E-01   -.304E-04 0.103E-04 0.460E-04
   0.402E+00 -.765E-02 0.930E-02   -.404E+00 0.820E-02 -.112E-01   -.497E-03 -.594E-03 0.183E-02   0.762E-05 -.141E-03 -.133E-05
   -.188E+00 0.165E+00 -.183E+00   0.185E+00 -.161E+00 0.175E+00   0.908E-02 -.608E-02 0.185E-01   0.231E-04 0.169E-04 0.350E-04
   -.353E+00 -.339E-02 -.691E-02   0.350E+00 0.275E-02 0.613E-02   -.203E-02 0.169E-02 0.120E-02   -.106E-04 -.279E-04 0.333E-04
   0.135E+00 0.146E+00 0.417E+00   -.135E+00 -.147E+00 -.418E+00   -.321E-02 0.155E-02 0.768E-02   -.143E-03 0.796E-04 -.142E-04
   0.166E+00 -.145E+00 -.418E+00   -.166E+00 0.145E+00 0.416E+00   -.292E-02 -.136E-02 -.394E-02   0.153E-03 0.685E-04 -.264E-04
   -.448E-01 -.181E+00 -.275E-01   0.403E-01 0.181E+00 0.250E-01   0.569E-02 -.414E-02 0.512E-02   -.120E-04 -.131E-04 0.417E-04
   -.458E-01 0.174E+00 0.253E-01   0.415E-01 -.175E+00 -.233E-01   0.388E-02 0.384E-02 -.496E-02   0.172E-04 -.620E-05 0.388E-04
   0.867E-01 0.662E-02 0.172E-02   -.837E-01 -.641E-02 -.183E-02   -.123E-02 -.393E-04 0.373E-03   -.530E-05 0.131E-04 0.282E-04
 -----------------------------------------------------------------------------------------------
   -.445E+00 0.177E-06 -.131E-06   -.105E-13 -.138E-12 -.628E-13   0.443E+00 -.347E-17 -.596E-17   -.253E-04 -.858E-09 -.247E-09


 POSITION                                       TOTAL-FORCE (eV/Angst)
 -----------------------------------------------------------------------------------
      3.66674      6.35098      0.00000        -0.002256     -0.005930      0.000400
     -3.66674      6.35098      0.00000        -0.002976      0.006200     -0.000544
     -0.00000      6.35098      0.00000         0.004488     -0.000176     -0.001259
      7.33348      0.00000      0.00000        -0.010352      0.000000     -0.000000
      0.09900      0.00000      0.00000        -0.637593      0.000000     -0.000000
      3.66674      0.00000      0.00000        -0.016355      0.000000     -0.000000
      5.50011      3.17549      0.00000         0.004488      0.000176      0.001259
     -1.83337      3.17549      0.00000        -0.002256      0.005930     -0.000400
      1.83337      3.17549      0.00000        -0.002976     -0.006200      0.000544
      3.66674      6.35098      5.50764         0.000073      0.000885      0.002923
     -3.66674      6.35098      5.50764         0.000851     -0.001421     -0.003047
     -0.00000      6.35098      5.50764        -0.007292     -0.000055      0.000135
      7.33348      0.00000      5.50764         0.002185      0.000000     -0.000000
      0.00000      0.00000      5.50764        -0.001963      0.000000     -0.000000
      3.66674      0.00000      5.50764         0.002751      0.000000     -0.000000
      5.50011      3.17549      5.50764        -0.007292      0.000055     -0.000135
     -1.83337      3.17549      5.50764         0.000073     -0.000885     -0.002923
      1.83337      3.17549      5.50764         0.000851      0.001421      0.003047
      3.66674      6.35098      8.26145        -0.000965      0.003878      0.002007
     -3.66674      6.35098      8.26145        -0.002244     -0.002900     -0.002505
     -0.00000      6.35098      8.26145         0.000419     -0.000155     -0.000617
      7.33348      0.00000      8.26145         0.005863      0.001485      0.001254
      0.00000      0.00000      8.26145        -0.010261     -0.000553      0.003084
      3.66674      0.00000      8.26145         0.004392      0.000638     -0.001877
      5.50011      3.17549      8.26145         0.000400      0.000132     -0.000106
     -1.83337      3.17549      8.26145        -0.001318     -0.005675     -0.000515
      1.83337      3.17549      8.26145        -0.001770      0.002949      0.001029
      3.66674      6.35098      2.75382        -0.001318      0.005675      0.000515
     -3.66674      6.35098      2.75382        -0.001770     -0.002949     -0.001029
     -0.00000      6.35098      2.75382         0.000400     -0.000132      0.000106
      7.33348      0.00000      2.75382         0.005863     -0.001485     -0.001254
      0.00000      0.00000      2.75382        -0.010261      0.000553     -0.003084
      3.66674      0.00000      2.75382         0.004392     -0.000638      0.001877
      5.50011      3.17549      2.75382         0.000419      0.000155      0.000617
     -1.83337      3.17549      2.75382        -0.000965     -0.003878     -0.002007
      1.83337      3.17549      2.75382        -0.002244      0.002900      0.002505
      5.50011      5.29248      6.88455         0.001818     -0.000187     -0.000296
     -1.83337      5.29248      6.88455         0.001158      0.003380     -0.002666
      1.83337      5.29248      6.88455        -0.000378     -0.002616      0.002842
      3.66674      8.46797      6.88455        -0.003017     -0.000474     -0.006697
     -3.66674      8.46797      6.88455        -0.002573      0.000657      0.005886
     -0.00000      8.46797      6.88455        -0.004768     -0.001024     -0.000458
      7.33348      2.11699      6.88455         0.005202     -0.002127      0.008973
     -0.00000      2.11699      6.88455        -0.001814      0.000183      0.000098
      3.66674      2.11699      6.88455         0.005868      0.002161     -0.009868
      5.50011      5.29248      1.37691         0.000944     -0.000454     -0.000440
     -1.83337      5.29248      1.37691        -0.001074     -0.000204     -0.000789
      1.83337      5.29248      1.37691        -0.001516      0.001149      0.000410
      3.66674      8.46797      1.37691         0.134324      0.062449     -0.104017
     -3.66674      8.46797      1.37691         0.181614     -0.094719      0.150198
     -0.00000      8.46797      1.37691        -0.000300     -0.000589     -0.000744
      7.33348      2.11699      1.37691         0.000296      0.000282     -0.000516
     -0.00000      2.11699      1.37691         0.023760     -0.008345     -0.005666
      3.66674      2.11699      1.37691         0.003713      0.001526      0.000436
      1.83337      7.40947      9.63836         0.000296     -0.000282      0.000516
      5.50011      7.40947      9.63836         0.023760      0.008345      0.005666
     -1.83337      7.40947      9.63836         0.003713     -0.001526     -0.000436
      5.50011      1.05850      9.63836        -0.000300      0.000589      0.000744
      9.16685      1.05850      9.63836         0.134324     -0.062449      0.104017
      1.83337      1.05850      9.63836         0.181614      0.094719     -0.150198
      3.66674      4.23399      9.63836        -0.001074      0.000204      0.000789
      7.33348      4.23399      9.63836        -0.001516     -0.001149     -0.000410
     -0.00000      4.23399      9.63836         0.000944      0.000454      0.000440
      1.83337      7.40947      4.13073         0.005202      0.002127     -0.008973
      5.50011      7.40947      4.13073        -0.001814     -0.000183     -0.000098
     -1.83337      7.40947      4.13073         0.005868     -0.002161      0.009868
      5.50011      1.05850      4.13073        -0.004768      0.001024      0.000458
      9.16685      1.05850      4.13073        -0.003017      0.000474      0.006697
      1.83337      1.05850      4.13073        -0.002573     -0.000657     -0.005886
      3.66674      4.23399      4.13073         0.001158     -0.003380      0.002666
      7.33348      4.23399      4.13073        -0.000378      0.002616     -0.002842
     -0.00000      4.23399      4.13073         0.001818      0.000187      0.000296
 -----------------------------------------------------------------------------------
    total drift:                               -0.002612      0.000000     -0.000000


--------------------------------------------------------------------------------------------------------



  FREE ENERGIE OF THE ION-ELECTRON SYSTEM (eV)
  ---------------------------------------------------
  free  energy   TOTEN  =      -509.75640438 eV

  energy  without entropy=     -509.77104646  energy(sigma->0) =     -509.76128507



--------------------------------------------------------------------------------------------------------


    POTLOK:  cpu time    2.1760: real time    2.1810


--------------------------------------------------------------------------------------------------------


     LOOP+:  cpu time48992.5360: real time49154.1591
    4ORBIT:  cpu time    0.0000: real time    0.0000

 total amount of memory used by VASP on root node   334142. kBytes
========================================================================

   base      :      30000. kBytes
   nonlr-proj:      20523. kBytes
   fftplans  :      28296. kBytes
   grid      :      21369. kBytes
   one-center:        559. kBytes
   wavefun   :     233395. kBytes

  
  
 General timing and accounting informations for this job:
 ========================================================
  
                  Total CPU time used (sec):    49143.410
                            User time (sec):    48746.156
                          System time (sec):      397.256
                         Elapsed time (sec):    49306.016
  
                   Maximum memory used (kb):      386448.
                   Average memory used (kb):           0.
  
                          Minor page faults:        95316
                          Major page faults:            6
                 Voluntary context switches:          699
