 vasp.5.4.1 24Jun15 (build Oct  9 2015 14:58:31) complex                         
 executed on           IFC91_ompi date 2017.05.25  07:06:42
 running on   16 total cores
 distrk:  each k-point on   16 cores,    1 groups
 distr:  one band on NCORES_PER_BAND=   4 cores,    4 groups


--------------------------------------------------------------------------------------------------------


 INCAR:
 POTCAR:   PAW_PBE Mn 06Sep2000                   
 POTCAR:   PAW_PBE As 06Sep2000                   
 POTCAR:   PAW_PBE Mn 06Sep2000                   
   VRHFIN =Mn: d6 s1                                                            
   LEXCH  = PE                                                                  
   EATOM  =   416.8732 eV,   30.6393 Ry                                         
                                                                                
   TITEL  = PAW_PBE Mn 06Sep2000                                                
   LULTRA =        F    use ultrasoft PP ?                                      
   IUNSCR =        1    unscreen: 0-lin 1-nonlin 2-no                           
   RPACOR =    2.000    partial core radius                                     
   POMASS =   54.938; ZVAL   =    7.000    mass and valenz                      
   RCORE  =    2.300    outmost cutoff radius                                   
   RWIGS  =    2.500; RWIGS  =    1.323    wigner-seitz radius (au A)           
   ENMAX  =  269.865; ENMIN  =  202.399 eV                                      
   RCLOC  =    1.725    cutoff for local pot                                    
   LCOR   =        T    correct aug charges                                     
   LPAW   =        T    paw PP                                                  
   EAUG   =  500.711                                                            
   DEXC   =    -.071                                                            
   RMAX   =    2.807    core radius for proj-oper                               
   RAUG   =    1.300    factor for augmentation sphere                          
   RDEP   =    2.338    radius for radial grids                                 
   QCUT   =   -4.454; QGAM   =    8.907    optimization parameters              
                                                                                
   Description                                                                  
     l     E      TYP  RCUT    TYP  RCUT                                        
     2   .000     23  2.300                                                     
     2   .000     23  2.300                                                     
     0   .000     23  2.300                                                     
     0   .000     23  2.300                                                     
     1  -.200     23  2.300                                                     
     1  1.500     23  2.300                                                     
     3   .000      7   .000                                                     
  local pseudopotential read in
  partial core-charges read in
  atomic valenz-charges read in
  non local Contribution for L=           2  read in
    real space projection operators read in
  non local Contribution for L=           2  read in
    real space projection operators read in
  non local Contribution for L=           0  read in
    real space projection operators read in
  non local Contribution for L=           0  read in
    real space projection operators read in
  non local Contribution for L=           1  read in
    real space projection operators read in
  non local Contribution for L=           1  read in
    real space projection operators read in
    PAW grid and wavefunctions read in

   number of l-projection  operators is LMAX  =           6
   number of lm-projection operators is LMMAX =          18

 POTCAR:   PAW_PBE As 06Sep2000                   
   VRHFIN =As: s2p3                                                             
   LEXCH  = PE                                                                  
   EATOM  =   170.0753 eV,   12.5002 Ry                                         
                                                                                
   TITEL  = PAW_PBE As 06Sep2000                                                
   LULTRA =        F    use ultrasoft PP ?                                      
   IUNSCR =        1    unscreen: 0-lin 1-nonlin 2-no                           
   RPACOR =    1.900    partial core radius                                     
   POMASS =   74.922; ZVAL   =    5.000    mass and valenz                      
   RCORE  =    2.100    outmost cutoff radius                                   
   RWIGS  =    2.300; RWIGS  =    1.217    wigner-seitz radius (au A)           
   ENMAX  =  208.680; ENMIN  =  156.510 eV                                      
   ICORE  =        3    local potential                                         
   LCOR   =        T    correct aug charges                                     
   LPAW   =        T    paw PP                                                  
   EAUG   =  462.758                                                            
   DEXC   =    -.108                                                            
   RMAX   =    3.192    core radius for proj-oper                               
   RAUG   =    1.300    factor for augmentation sphere                          
   RDEP   =    2.140    radius for radial grids                                 
   QCUT   =   -3.916; QGAM   =    7.833    optimization parameters              
                                                                                
   Description                                                                  
     l     E      TYP  RCUT    TYP  RCUT                                        
     0   .000     23  2.100                                                     
     0   .000     23  2.100                                                     
     1   .000     23  2.100                                                     
     1   .000     23  2.100                                                     
     2   .000     23  2.100                                                     
     3  -.100      7  2.100                                                     
  local pseudopotential read in
  partial core-charges read in
  atomic valenz-charges read in
  non local Contribution for L=           0  read in
    real space projection operators read in
  non local Contribution for L=           0  read in
    real space projection operators read in
  non local Contribution for L=           1  read in
    real space projection operators read in
  non local Contribution for L=           1  read in
    real space projection operators read in
  non local Contribution for L=           2  read in
    real space projection operators read in
    PAW grid and wavefunctions read in

   number of l-projection  operators is LMAX  =           5
   number of lm-projection operators is LMMAX =          13

 PAW_PBE Mn 06Sep2000                   :
 energy of atom  1       EATOM= -416.8732
 kinetic energy error for atom=    0.0239 (will be added to EATOM!!)
 PAW_PBE As 06Sep2000                   :
 energy of atom  2       EATOM= -170.0753
 kinetic energy error for atom=    0.0021 (will be added to EATOM!!)


 POSCAR: For VASP. System=    MnAs_hex           
  positions in direct lattice
  No initial velocities read in
 exchange correlation table for  LEXCH =        8
   RHO(1)=    0.500       N(1)  =     2000
   RHO(2)=  100.500       N(2)  =     4000



--------------------------------------------------------------------------------------------------------


 ion  position               nearest neighbor table
   1  0.667  0.667  0.000-  56 2.53  55 2.53  46 2.53  49 2.53  48 2.53  61 2.53  19 2.75  28 2.75

   2  0.000  0.667  0.000-  56 2.53  46 2.53  57 2.53  47 2.53  50 2.53  62 2.53  20 2.75  29 2.75

   3  0.333  0.667  0.000-  57 2.53  47 2.53  51 2.53  55 2.53  48 2.53  63 2.53  21 2.75  30 2.75

   4  0.667  0.000  0.000-  49 2.53  59 2.53  58 2.53  52 2.53  55 2.53  51 2.53  22 2.75  31 2.75

   5  0.030  0.000  0.000-  50 2.30  60 2.30  56 2.55  53 2.55  23 2.77  32 2.77  59 2.77  49 2.77

   6  0.333  0.000  0.000-  60 2.53  50 2.53  51 2.53  57 2.53  54 2.53  58 2.53  24 2.75  33 2.75

   7  0.667  0.333  0.000-  52 2.53  62 2.53  58 2.53  54 2.53  61 2.53  46 2.53  25 2.75  34 2.75

   8  0.000  0.333  0.000-  53 2.53  52 2.53  63 2.53  62 2.53  59 2.53  47 2.53  26 2.75  35 2.75

   9  0.333  0.333  0.000-  53 2.53  54 2.53  63 2.53  60 2.53  61 2.53  48 2.53  27 2.75  36 2.75

  10  0.667  0.667  0.500-  65 2.53  64 2.53  37 2.53  40 2.53  39 2.53  70 2.53  19 2.75  28 2.75

  11  0.000  0.667  0.500-  65 2.53  37 2.53  66 2.53  38 2.53  41 2.53  71 2.53  20 2.75  29 2.75

  12  0.333  0.667  0.500-  66 2.53  38 2.53  42 2.53  64 2.53  39 2.53  72 2.53  21 2.75  30 2.75

  13  0.667  0.000  0.500-  40 2.53  68 2.53  67 2.53  43 2.53  64 2.53  42 2.53  22 2.75  31 2.75

  14  0.000  0.000  0.500-  41 2.53  68 2.53  40 2.53  69 2.53  44 2.53  65 2.53  23 2.75  32 2.75

  15  0.333  0.000  0.500-  69 2.53  41 2.53  42 2.53  66 2.53  45 2.53  67 2.53  24 2.75  33 2.75

  16  0.667  0.333  0.500-  43 2.53  71 2.53  67 2.53  45 2.53  70 2.53  37 2.53  25 2.75  34 2.75

  17  0.000  0.333  0.500-  44 2.53  43 2.53  72 2.53  71 2.53  68 2.53  38 2.53  26 2.75  35 2.75

  18  0.333  0.333  0.500-  44 2.53  45 2.53  72 2.53  69 2.53  70 2.53  39 2.53  27 2.75  36 2.75

  19  0.667  0.667  0.750-  56 2.53  55 2.53  37 2.53  40 2.53  39 2.53  61 2.53   1 2.75  10 2.75

  20  0.000  0.667  0.750-  56 2.53  37 2.53  57 2.53  38 2.53  41 2.53  62 2.53   2 2.75  11 2.75

  21  0.333  0.667  0.750-  57 2.53  38 2.53  42 2.53  55 2.53  39 2.53  63 2.53   3 2.75  12 2.75

  22  0.667  0.000  0.750-  40 2.53  59 2.53  58 2.53  43 2.53  55 2.53  42 2.53   4 2.75  13 2.75

  23  0.000  0.000  0.750-  41 2.53  59 2.53  40 2.53  60 2.53  44 2.53  56 2.53  14 2.75   5 2.77

  24  0.333  0.000  0.750-  60 2.53  41 2.53  42 2.53  57 2.53  45 2.53  58 2.53   6 2.75  15 2.75

  25  0.667  0.333  0.750-  43 2.53  62 2.53  58 2.53  45 2.53  61 2.53  37 2.53   7 2.75  16 2.75

  26  0.000  0.333  0.750-  44 2.53  43 2.53  63 2.53  62 2.53  59 2.53  38 2.53   8 2.75  17 2.75

  27  0.333  0.333  0.750-  44 2.53  45 2.53  63 2.53  60 2.53  61 2.53  39 2.53   9 2.75  18 2.75

  28  0.667  0.667  0.250-  65 2.53  64 2.53  46 2.53  49 2.53  48 2.53  70 2.53   1 2.75  10 2.75

  29  0.000  0.667  0.250-  65 2.53  46 2.53  66 2.53  47 2.53  50 2.53  71 2.53   2 2.75  11 2.75

  30  0.333  0.667  0.250-  66 2.53  47 2.53  51 2.53  64 2.53  48 2.53  72 2.53   3 2.75  12 2.75

  31  0.667  0.000  0.250-  49 2.53  68 2.53  67 2.53  52 2.53  64 2.53  51 2.53   4 2.75  13 2.75

  32  0.000  0.000  0.250-  50 2.53  68 2.53  49 2.53  69 2.53  53 2.53  65 2.53  14 2.75   5 2.77

  33  0.333  0.000  0.250-  69 2.53  50 2.53  51 2.53  66 2.53  54 2.53  67 2.53   6 2.75  15 2.75

  34  0.667  0.333  0.250-  52 2.53  71 2.53  67 2.53  54 2.53  70 2.53  46 2.53   7 2.75  16 2.75

  35  0.000  0.333  0.250-  53 2.53  52 2.53  72 2.53  71 2.53  68 2.53  47 2.53   8 2.75  17 2.75

  36  0.333  0.333  0.250-  53 2.53  54 2.53  72 2.53  69 2.53  70 2.53  48 2.53   9 2.75  18 2.75

  37  0.778  0.556  0.625-  11 2.53  20 2.53  19 2.53  10 2.53  16 2.53  25 2.53
  38  0.111  0.556  0.625-  12 2.53  21 2.53  20 2.53  11 2.53  17 2.53  26 2.53
  39  0.444  0.556  0.625-  10 2.53  19 2.53  12 2.53  21 2.53  18 2.53  27 2.53
  40  0.778  0.889  0.625-  13 2.53  22 2.53  14 2.53  23 2.53  10 2.53  19 2.53
  41  0.111  0.889  0.625-  14 2.53  23 2.53  15 2.53  24 2.53  11 2.53  20 2.53
  42  0.444  0.889  0.625-  15 2.53  24 2.53  21 2.53  12 2.53  22 2.53  13 2.53
  43  0.778  0.222  0.625-  16 2.53  25 2.53  17 2.53  26 2.53  13 2.53  22 2.53
  44  0.111  0.222  0.625-  17 2.53  26 2.53  18 2.53  27 2.53  14 2.53  23 2.53
  45  0.444  0.222  0.625-  18 2.53  27 2.53  24 2.53  15 2.53  25 2.53  16 2.53
  46  0.778  0.556  0.125-   2 2.53  29 2.53  28 2.53   1 2.53   7 2.53  34 2.53
  47  0.111  0.556  0.125-   3 2.53  30 2.53  29 2.53   2 2.53   8 2.53  35 2.53
  48  0.444  0.556  0.125-   1 2.53  28 2.53   3 2.53  30 2.53   9 2.53  36 2.53
  49  0.778  0.889  0.125-   4 2.53  31 2.53  32 2.53   1 2.53  28 2.53   5 2.77
  50  0.111  0.889  0.125-   5 2.30  32 2.53   6 2.53  33 2.53   2 2.53  29 2.53
  51  0.444  0.889  0.125-   6 2.53  33 2.53  30 2.53   3 2.53  31 2.53   4 2.53
  52  0.778  0.222  0.125-   7 2.53  34 2.53   8 2.53  35 2.53   4 2.53  31 2.53
  53  0.111  0.222  0.125-   8 2.53  35 2.53   9 2.53  36 2.53  32 2.53   5 2.55
  54  0.444  0.222  0.125-   9 2.53  36 2.53  33 2.53   6 2.53  34 2.53   7 2.53
  55  0.556  0.778  0.875-   1 2.53  19 2.53   4 2.53  22 2.53  21 2.53   3 2.53
  56  0.889  0.778  0.875-   2 2.53  20 2.53  19 2.53   1 2.53  23 2.53   5 2.55
  57  0.222  0.778  0.875-   3 2.53  21 2.53  20 2.53   2 2.53   6 2.53  24 2.53
  58  0.556  0.111  0.875-   4 2.53  22 2.53   7 2.53  25 2.53  24 2.53   6 2.53
  59  0.889  0.111  0.875-  23 2.53  22 2.53   4 2.53   8 2.53  26 2.53   5 2.77
  60  0.222  0.111  0.875-   5 2.30   6 2.53  24 2.53  23 2.53   9 2.53  27 2.53
  61  0.556  0.444  0.875-   9 2.53  27 2.53  25 2.53   7 2.53   1 2.53  19 2.53
  62  0.889  0.444  0.875-   7 2.53  25 2.53   8 2.53  26 2.53   2 2.53  20 2.53
  63  0.222  0.444  0.875-   8 2.53  26 2.53   9 2.53  27 2.53   3 2.53  21 2.53
  64  0.556  0.778  0.375-  10 2.53  28 2.53  13 2.53  31 2.53  30 2.53  12 2.53
  65  0.889  0.778  0.375-  11 2.53  29 2.53  28 2.53  10 2.53  14 2.53  32 2.53
  66  0.222  0.778  0.375-  12 2.53  30 2.53  29 2.53  11 2.53  15 2.53  33 2.53
  67  0.556  0.111  0.375-  13 2.53  31 2.53  16 2.53  34 2.53  33 2.53  15 2.53
  68  0.889  0.111  0.375-  14 2.53  32 2.53  31 2.53  13 2.53  17 2.53  35 2.53
  69  0.222  0.111  0.375-  15 2.53  33 2.53  32 2.53  14 2.53  18 2.53  36 2.53
  70  0.556  0.444  0.375-  18 2.53  36 2.53  34 2.53  16 2.53  10 2.53  28 2.53
  71  0.889  0.444  0.375-  16 2.53  34 2.53  17 2.53  35 2.53  11 2.53  29 2.53
  72  0.222  0.444  0.375-  17 2.53  35 2.53  18 2.53  36 2.53  12 2.53  30 2.53

  LATTYP: Found a hexagonal cell.
 ALAT       =    11.0002171438
 C/A-ratio  =     1.0013686964
  
  Lattice vectors:
  
 A1 = (  11.0002171438,   0.0000000000,   0.0000000000)
 A2 = (  -5.5001085719,   9.5264674936,   0.0000000000)
 A3 = (   0.0000000000,   0.0000000000,  11.0152731015)


Analysis of symmetry for initial positions (statically):
=====================================================================
 Subroutine PRICEL returns:
 Original cell was already a primitive cell.
 

 Routine SETGRP: Setting up the symmetry group for a 
 hexagonal supercell.


 Subroutine GETGRP returns: Found  2 space group operations
 (whereof  2 operations were pure point group operations)
 out of a pool of 24 trial point group operations.


The static configuration has the point symmetry C_2 .


Analysis of symmetry for dynamics (positions and initial velocities):
=====================================================================
 Subroutine PRICEL returns:
 Original cell was already a primitive cell.
 

 Routine SETGRP: Setting up the symmetry group for a 
 hexagonal supercell.


 Subroutine GETGRP returns: Found  2 space group operations
 (whereof  2 operations were pure point group operations)
 out of a pool of 24 trial point group operations.


The dynamic configuration has the point symmetry C_2 .


Analysis of structural, dynamic, and magnetic symmetry:
=====================================================================
 Subroutine PRICEL returns:
 Original cell was already a primitive cell.
 

 Routine SETGRP: Setting up the symmetry group for a 
 hexagonal supercell.


 Subroutine GETGRP returns: Found  2 space group operations
 (whereof  2 operations were pure point group operations)
 out of a pool of 24 trial point group operations.


The magnetic configuration has the point symmetry C_2 .


 Subroutine INISYM returns: Found  2 space group operations
 (whereof  2 operations are pure point group operations),
 and found     1 'primitive' translations



 KPOINTS: Automatic mesh                          

Automatic generation of k-mesh.
Space group operators:
 irot       det(A)        alpha          n_x          n_y          n_z        tau_x        tau_y        tau_z
    1     1.000000     0.000000     1.000000     0.000000     0.000000     0.000000     0.000000     0.000000
    2     1.000000   180.000000     1.000000     0.000000     0.000000     0.000000     0.000000     0.000000
 
 Subroutine IBZKPT returns following result:
 ===========================================
 
 Found     24 irreducible k-points:
 
 Following reciprocal coordinates:
            Coordinates               Weight
  0.000000  0.000000  0.000000      1.000000
  0.250000  0.000000  0.000000      4.000000
  0.500000  0.000000  0.000000      2.000000
  0.000000  0.250000  0.000000      2.000000
  0.250000  0.250000  0.000000      4.000000
  0.500000  0.250000  0.000000      2.000000
  0.000000  0.500000  0.000000      1.000000
  0.000000  0.000000  0.250000      2.000000
  0.250000  0.000000  0.250000      4.000000
  0.500000  0.000000  0.250000      4.000000
 -0.250000  0.000000  0.250000      4.000000
  0.000000  0.250000  0.250000      2.000000
  0.250000  0.250000  0.250000      4.000000
  0.500000  0.250000  0.250000      4.000000
  0.000000  0.500000  0.250000      2.000000
  0.250000  0.500000  0.250000      4.000000
  0.000000 -0.250000  0.250000      2.000000
  0.000000  0.000000  0.500000      1.000000
  0.250000  0.000000  0.500000      4.000000
  0.500000  0.000000  0.500000      2.000000
  0.000000  0.250000  0.500000      2.000000
  0.250000  0.250000  0.500000      4.000000
  0.500000  0.250000  0.500000      2.000000
  0.000000  0.500000  0.500000      1.000000
 
 Following cartesian coordinates:
            Coordinates               Weight
  0.000000  0.000000  0.000000      1.000000
  0.022727  0.013121  0.000000      4.000000
  0.045454  0.026243  0.000000      2.000000
  0.000000  0.026243  0.000000      2.000000
  0.022727  0.039364  0.000000      4.000000
  0.045454  0.052485  0.000000      2.000000
  0.000000  0.052485  0.000000      1.000000
  0.000000  0.000000  0.022696      2.000000
  0.022727  0.013121  0.022696      4.000000
  0.045454  0.026243  0.022696      4.000000
 -0.022727 -0.013121  0.022696      4.000000
  0.000000  0.026243  0.022696      2.000000
  0.022727  0.039364  0.022696      4.000000
  0.045454  0.052485  0.022696      4.000000
  0.000000  0.052485  0.022696      2.000000
  0.022727  0.065607  0.022696      4.000000
  0.000000 -0.026243  0.022696      2.000000
  0.000000  0.000000  0.045392      1.000000
  0.022727  0.013121  0.045392      4.000000
  0.045454  0.026243  0.045392      2.000000
  0.000000  0.026243  0.045392      2.000000
  0.022727  0.039364  0.045392      4.000000
  0.045454  0.052485  0.045392      2.000000
  0.000000  0.052485  0.045392      1.000000
 


--------------------------------------------------------------------------------------------------------




 Dimension of arrays:
   k-points           NKPTS =     24   k-points in BZ     NKDIM =     24   number of bands    NBANDS=    300
   number of dos      NEDOS =    301   number of ions     NIONS =     72
   non local maximal  LDIM  =      6   non local SUM 2l+1 LMDIM =     18
   total plane-waves  NPLWV = 343000
   max r-space proj   IRMAX =   6047   max aug-charges    IRDMAX=  98554
   dimension x,y,z NGX =    70 NGY =   70 NGZ =   70
   dimension x,y,z NGXF=   140 NGYF=  140 NGZF=  140
   support grid    NGXF=   280 NGYF=  280 NGZF=  280
   ions per type =              36  36
 NGX,Y,Z   is equivalent  to a cutoff of  10.58, 10.58, 10.56 a.u.
 NGXF,Y,Z  is equivalent  to a cutoff of  21.16, 21.16, 21.13 a.u.


 I would recommend the setting:
   dimension x,y,z NGX =    64 NGY =   64 NGZ =   64
 SYSTEM =  MnAs hex                                
 POSCAR =  For VASP. System=    MnAs_hex           

 Startparameter for this run:
   NWRITE =      2    write-flag & timer
   PREC   = accura    normal or accurate (medium, high low for compatibility)
   ISTART =      0    job   : 0-new  1-cont  2-samecut
   ICHARG =      2    charge: 1-file 2-atom 10-const
   ISPIN  =      2    spin polarized calculation?
   LNONCOLLINEAR =      F non collinear calculations
   LSORBIT =      F    spin-orbit coupling
   INIWAV =      1    electr: 0-lowe 1-rand  2-diag
   LASPH  =      F    aspherical Exc in radial PAW
   METAGGA=      F    non-selfconsistent MetaGGA calc.

 Electronic Relaxation 1
   ENCUT  =  320.0 eV  23.52 Ry    4.85 a.u.  16.04 16.04 16.07*2*pi/ulx,y,z
   ENINI  =  320.0     initial cutoff
   ENAUG  =  500.7 eV  augmentation charge cutoff
   NELM   =    200;   NELMIN=  2; NELMDL=  0     # of ELM steps 
   EDIFF  = 0.1E-06   stopping-criterion for ELM
   LREAL  =      T    real-space projection
   NLSPLINE    = F    spline interpolate recip. space projectors
   LCOMPAT=      F    compatible to vasp.4.4
   GGA_COMPAT  = T    GGA compatible to vasp.4.4-vasp.4.6
   LMAXPAW     = -100 max onsite density
   LMAXMIX     =    2 max onsite mixed and CHGCAR
   VOSKOWN=      0    Vosko Wilk Nusair interpolation
   ROPT   =    0.00000   0.00000
 Ionic relaxation
   EDIFFG = 0.1E-05   stopping-criterion for IOM
   NSW    =      0    number of steps for IOM
   NBLOCK =      1;   KBLOCK =      1    inner block; outer block 
   IBRION =     -1    ionic relax: 0-MD 1-quasi-New 2-CG
   NFREE  =      1    steps in history (QN), initial steepest desc. (CG)
   ISIF   =      6    stress and relaxation
   IWAVPR =     10    prediction:  0-non 1-charg 2-wave 3-comb
   ISYM   =      2    0-nonsym 1-usesym 2-fastsym
   LCORR  =      T    Harris-Foulkes like correction to forces

   POTIM  = 0.5000    time-step for ionic-motion
   TEIN   =    0.0    initial temperature
   TEBEG  =    0.0;   TEEND  =   0.0 temperature during run
   SMASS  =  -3.00    Nose mass-parameter (am)
   estimated Nose-frequenzy (Omega)   =  0.10E-29 period in steps =****** mass=  -0.277E-26a.u.
   SCALEE = 1.0000    scale energy and forces
   NPACO  =    256;   APACO  = 16.0  distance and # of slots for P.C.
   PSTRESS=    0.0 pullay stress

  Mass of Ions in am
   POMASS =  54.94 74.92
  Ionic Valenz
   ZVAL   =   7.00  5.00
  Atomic Wigner-Seitz radii
   RWIGS  =  -1.00 -1.00
  virtual crystal weights 
   VCA    =   1.00  1.00
   NELECT =     432.0000    total number of electrons
   NUPDOWN=      -1.0000    fix difference up-down

 DOS related values:
   EMIN   =  10.00;   EMAX   =-10.00  energy-range for DOS
   EFERMI =   0.00
   ISMEAR =     1;   SIGMA  =   0.20  broadening in eV -4-tet -1-fermi 0-gaus

 Electronic relaxation 2 (details)
   IALGO  =     38    algorithm
   LDIAG  =      T    sub-space diagonalisation (order eigenvalues)
   LSUBROT=      F    optimize rotation matrix (better conditioning)
   TURBO    =      0    0=normal 1=particle mesh
   IRESTART =      0    0=no restart 2=restart with 2 vectors
   NREBOOT  =      0    no. of reboots
   NMIN     =      0    reboot dimension
   EREF     =   0.00    reference energy to select bands
   IMIX   =      4    mixing-type and parameters
     AMIX     =   0.40;   BMIX     =  1.00
     AMIX_MAG =   1.60;   BMIX_MAG =  1.00
     AMIN     =   0.10
     WC   =   100.;   INIMIX=   1;  MIXPRE=   1;  MAXMIX= -45

 Intra band minimization:
   WEIMIN = 0.0000     energy-eigenvalue tresh-hold
   EBREAK =  0.83E-10  absolut break condition
   DEPER  =   0.30     relativ break condition  

   TIME   =   0.40     timestep for ELM

  volume/ion in A,a.u.               =      16.03       108.19
  Fermi-wavevector in a.u.,A,eV,Ry     =   1.179759  2.229421 18.937012  1.391831
  Thomas-Fermi vector in A             =   2.316064

 Write flags
   LWAVE  =      F    write WAVECAR
   LCHARG =      F    write CHGCAR
   LVTOT  =      F    write LOCPOT, total local potential
   LVHAR  =      F    write LOCPOT, Hartree potential only
   LELF   =      F    write electronic localiz. function (ELF)
   LORBIT =      0    0 simple, 1 ext, 2 COOP (PROOUT)


 Dipole corrections
   LMONO  =      F    monopole corrections only (constant potential shift)
   LDIPOL =      F    correct potential (dipole corrections)
   IDIPOL =      0    1-x, 2-y, 3-z, 4-all directions 
   EPSILON=  1.0000000 bulk dielectric constant

 Exchange correlation treatment:
   GGA     =    --    GGA type
   LEXCH   =     8    internal setting for exchange type
   VOSKOWN=      0    Vosko Wilk Nusair interpolation
   LHFCALC =     F    Hartree Fock is set to
   LHFONE  =     F    Hartree Fock one center treatment
   AEXX    =    0.0000 exact exchange contribution

 Linear response parameters
   LEPSILON=     F    determine dielectric tensor
   LRPA    =     F    only Hartree local field effects (RPA)
   LNABLA  =     F    use nabla operator in PAW spheres
   LVEL    =     F    velocity operator in full k-point grid
   LINTERFAST=   F  fast interpolation
   KINTER  =     0    interpolate to denser k-point grid
   CSHIFT  =0.1000    complex shift for real part using Kramers Kronig
   OMEGAMAX=  -1.0    maximum frequency
   DEG_THRESHOLD= 0.2000000E-02 threshold for treating states as degnerate
   RTIME   =    0.100 relaxation time in fs

 Orbital magnetization related:
   ORBITALMAG=     F  switch on orbital magnetization
   LCHIMAG   =     F  perturbation theory with respect to B field
   DQ        =  0.001000  dq finite difference perturbation B field



--------------------------------------------------------------------------------------------------------


 Static calculation
 charge density and potential will be updated during run
 spin polarized calculation
 Variant of blocked Davidson
 Davidson routine will perform the subspace rotation
 perform sub-space diagonalisation
    after iterative eigenvector-optimisation
 modified Broyden-mixing scheme, WC =      100.0
 initial mixing is a Kerker type mixing with AMIX =  0.4000 and BMIX =      1.0000
 Hartree-type preconditioning will be used
 using additional bands           84
 real space projection scheme for non local part
 use partial core corrections
 calculate Harris-corrections to forces   (improved forces if not selfconsistent)
 use gradient corrections 
 use of overlap-Matrix (Vanderbilt PP)
 Methfessel and Paxton  Order N= 1 SIGMA  =   0.20


--------------------------------------------------------------------------------------------------------


  energy-cutoff  :      320.00
  volume of cell :     1154.33
      direct lattice vectors                 reciprocal lattice vectors
    11.000217144  0.000000000  0.000000000     0.090907296  0.052485352 -0.000000000
    -5.500108572  9.526467494  0.000000000     0.000000000  0.104970704  0.000000000
     0.000000000  0.000000000 11.015273102     0.000000000 -0.000000000  0.090783042

  length of vectors
    11.000217144 11.000217144 11.015273102     0.104970704  0.104970704  0.090783042



 k-points in units of 2pi/SCALE and weight: Automatic mesh                          
   0.00000000  0.00000000  0.00000000       0.016
   0.02272682  0.01312134  0.00000000       0.062
   0.04545365  0.02624268  0.00000000       0.031
   0.00000000  0.02624268  0.00000000       0.031
   0.02272682  0.03936401  0.00000000       0.062
   0.04545365  0.05248535  0.00000000       0.031
   0.00000000  0.05248535  0.00000000       0.016
   0.00000000  0.00000000  0.02269576       0.031
   0.02272682  0.01312134  0.02269576       0.062
   0.04545365  0.02624268  0.02269576       0.062
  -0.02272682 -0.01312134  0.02269576       0.062
   0.00000000  0.02624268  0.02269576       0.031
   0.02272682  0.03936401  0.02269576       0.062
   0.04545365  0.05248535  0.02269576       0.062
   0.00000000  0.05248535  0.02269576       0.031
   0.02272682  0.06560669  0.02269576       0.062
   0.00000000 -0.02624268  0.02269576       0.031
   0.00000000  0.00000000  0.04539152       0.016
   0.02272682  0.01312134  0.04539152       0.062
   0.04545365  0.02624268  0.04539152       0.031
   0.00000000  0.02624268  0.04539152       0.031
   0.02272682  0.03936401  0.04539152       0.062
   0.04545365  0.05248535  0.04539152       0.031
   0.00000000  0.05248535  0.04539152       0.016

 k-points in reciprocal lattice and weights: Automatic mesh                          
   0.00000000  0.00000000  0.00000000       0.016
   0.25000000  0.00000000  0.00000000       0.062
   0.50000000  0.00000000  0.00000000       0.031
   0.00000000  0.25000000  0.00000000       0.031
   0.25000000  0.25000000  0.00000000       0.062
   0.50000000  0.25000000  0.00000000       0.031
   0.00000000  0.50000000  0.00000000       0.016
   0.00000000  0.00000000  0.25000000       0.031
   0.25000000  0.00000000  0.25000000       0.062
   0.50000000  0.00000000  0.25000000       0.062
  -0.25000000  0.00000000  0.25000000       0.062
   0.00000000  0.25000000  0.25000000       0.031
   0.25000000  0.25000000  0.25000000       0.062
   0.50000000  0.25000000  0.25000000       0.062
   0.00000000  0.50000000  0.25000000       0.031
   0.25000000  0.50000000  0.25000000       0.062
   0.00000000 -0.25000000  0.25000000       0.031
   0.00000000  0.00000000  0.50000000       0.016
   0.25000000  0.00000000  0.50000000       0.062
   0.50000000  0.00000000  0.50000000       0.031
   0.00000000  0.25000000  0.50000000       0.031
   0.25000000  0.25000000  0.50000000       0.062
   0.50000000  0.25000000  0.50000000       0.031
   0.00000000  0.50000000  0.50000000       0.016

 position of ions in fractional coordinates (direct lattice) 
   0.66666667  0.66666667  0.00000000
   0.00000000  0.66666667  0.00000000
   0.33333333  0.66666667  0.00000000
   0.66666667  0.00000000  0.00000000
   0.03000000  0.00000000  0.00000000
   0.33333333  0.00000000  0.00000000
   0.66666667  0.33333333  0.00000000
   0.00000000  0.33333333  0.00000000
   0.33333333  0.33333333  0.00000000
   0.66666667  0.66666667  0.50000000
   0.00000000  0.66666667  0.50000000
   0.33333333  0.66666667  0.50000000
   0.66666667  0.00000000  0.50000000
   0.00000000  0.00000000  0.50000000
   0.33333333  0.00000000  0.50000000
   0.66666667  0.33333333  0.50000000
   0.00000000  0.33333333  0.50000000
   0.33333333  0.33333333  0.50000000
   0.66666667  0.66666667  0.75000000
   0.00000000  0.66666667  0.75000000
   0.33333333  0.66666667  0.75000000
   0.66666667  0.00000000  0.75000000
   0.00000000  0.00000000  0.75000000
   0.33333333  0.00000000  0.75000000
   0.66666667  0.33333333  0.75000000
   0.00000000  0.33333333  0.75000000
   0.33333333  0.33333333  0.75000000
   0.66666667  0.66666667  0.25000000
   0.00000000  0.66666667  0.25000000
   0.33333333  0.66666667  0.25000000
   0.66666667  0.00000000  0.25000000
   0.00000000  0.00000000  0.25000000
   0.33333333  0.00000000  0.25000000
   0.66666667  0.33333333  0.25000000
   0.00000000  0.33333333  0.25000000
   0.33333333  0.33333333  0.25000000
   0.77777778  0.55555556  0.62500000
   0.11111111  0.55555556  0.62500000
   0.44444444  0.55555556  0.62500000
   0.77777778  0.88888889  0.62500000
   0.11111111  0.88888889  0.62500000
   0.44444444  0.88888889  0.62500000
   0.77777778  0.22222222  0.62500000
   0.11111111  0.22222222  0.62500000
   0.44444444  0.22222222  0.62500000
   0.77777778  0.55555556  0.12500000
   0.11111111  0.55555556  0.12500000
   0.44444444  0.55555556  0.12500000
   0.77777778  0.88888889  0.12500000
   0.11111111  0.88888889  0.12500000
   0.44444444  0.88888889  0.12500000
   0.77777778  0.22222222  0.12500000
   0.11111111  0.22222222  0.12500000
   0.44444444  0.22222222  0.12500000
   0.55555556  0.77777778  0.87500000
   0.88888889  0.77777778  0.87500000
   0.22222222  0.77777778  0.87500000
   0.55555556  0.11111111  0.87500000
   0.88888889  0.11111111  0.87500000
   0.22222222  0.11111111  0.87500000
   0.55555556  0.44444444  0.87500000
   0.88888889  0.44444444  0.87500000
   0.22222222  0.44444444  0.87500000
   0.55555556  0.77777778  0.37500000
   0.88888889  0.77777778  0.37500000
   0.22222222  0.77777778  0.37500000
   0.55555556  0.11111111  0.37500000
   0.88888889  0.11111111  0.37500000
   0.22222222  0.11111111  0.37500000
   0.55555556  0.44444444  0.37500000
   0.88888889  0.44444444  0.37500000
   0.22222222  0.44444444  0.37500000

 position of ions in cartesian coordinates  (Angst):
   3.66673905  6.35097833  0.00000000
  -3.66673905  6.35097833  0.00000000
  -0.00000000  6.35097833  0.00000000
   7.33347810  0.00000000  0.00000000
   0.33000651  0.00000000  0.00000000
   3.66673905  0.00000000  0.00000000
   5.50010857  3.17548916  0.00000000
  -1.83336952  3.17548916  0.00000000
   1.83336952  3.17548916  0.00000000
   3.66673905  6.35097833  5.50763655
  -3.66673905  6.35097833  5.50763655
  -0.00000000  6.35097833  5.50763655
   7.33347810  0.00000000  5.50763655
   0.00000000  0.00000000  5.50763655
   3.66673905  0.00000000  5.50763655
   5.50010857  3.17548916  5.50763655
  -1.83336952  3.17548916  5.50763655
   1.83336952  3.17548916  5.50763655
   3.66673905  6.35097833  8.26145483
  -3.66673905  6.35097833  8.26145483
  -0.00000000  6.35097833  8.26145483
   7.33347810  0.00000000  8.26145483
   0.00000000  0.00000000  8.26145483
   3.66673905  0.00000000  8.26145483
   5.50010857  3.17548916  8.26145483
  -1.83336952  3.17548916  8.26145483
   1.83336952  3.17548916  8.26145483
   3.66673905  6.35097833  2.75381828
  -3.66673905  6.35097833  2.75381828
  -0.00000000  6.35097833  2.75381828
   7.33347810  0.00000000  2.75381828
   0.00000000  0.00000000  2.75381828
   3.66673905  0.00000000  2.75381828
   5.50010857  3.17548916  2.75381828
  -1.83336952  3.17548916  2.75381828
   1.83336952  3.17548916  2.75381828
   5.50010857  5.29248194  6.88454569
  -1.83336952  5.29248194  6.88454569
   1.83336952  5.29248194  6.88454569
   3.66673905  8.46797111  6.88454569
  -3.66673905  8.46797111  6.88454569
  -0.00000000  8.46797111  6.88454569
   7.33347810  2.11699278  6.88454569
  -0.00000000  2.11699278  6.88454569
   3.66673905  2.11699278  6.88454569
   5.50010857  5.29248194  1.37690914
  -1.83336952  5.29248194  1.37690914
   1.83336952  5.29248194  1.37690914
   3.66673905  8.46797111  1.37690914
  -3.66673905  8.46797111  1.37690914
  -0.00000000  8.46797111  1.37690914
   7.33347810  2.11699278  1.37690914
  -0.00000000  2.11699278  1.37690914
   3.66673905  2.11699278  1.37690914
   1.83336952  7.40947472  9.63836396
   5.50010857  7.40947472  9.63836396
  -1.83336952  7.40947472  9.63836396
   5.50010857  1.05849639  9.63836396
   9.16684762  1.05849639  9.63836396
   1.83336952  1.05849639  9.63836396
   3.66673905  4.23398555  9.63836396
   7.33347810  4.23398555  9.63836396
  -0.00000000  4.23398555  9.63836396
   1.83336952  7.40947472  4.13072741
   5.50010857  7.40947472  4.13072741
  -1.83336952  7.40947472  4.13072741
   5.50010857  1.05849639  4.13072741
   9.16684762  1.05849639  4.13072741
   1.83336952  1.05849639  4.13072741
   3.66673905  4.23398555  4.13072741
   7.33347810  4.23398555  4.13072741
  -0.00000000  4.23398555  4.13072741



--------------------------------------------------------------------------------------------------------


 k-point  1 :   0.0000 0.0000 0.0000  plane waves:   14931
 k-point  2 :   0.2500 0.0000 0.0000  plane waves:   14982
 k-point  3 :   0.5000 0.0000 0.0000  plane waves:   15008
 k-point  4 :   0.0000 0.2500 0.0000  plane waves:   14982
 k-point  5 :   0.2500 0.2500 0.0000  plane waves:   14994
 k-point  6 :   0.5000 0.2500 0.0000  plane waves:   14994
 k-point  7 :   0.0000 0.5000 0.0000  plane waves:   15008
 k-point  8 :   0.0000 0.0000 0.2500  plane waves:   14990
 k-point  9 :   0.2500 0.0000 0.2500  plane waves:   15013
 k-point 10 :   0.5000 0.0000 0.2500  plane waves:   15002
 k-point 11 :  -0.2500 0.0000 0.2500  plane waves:   15013
 k-point 12 :   0.0000 0.2500 0.2500  plane waves:   15013
 k-point 13 :   0.2500 0.2500 0.2500  plane waves:   15003
 k-point 14 :   0.5000 0.2500 0.2500  plane waves:   15003
 k-point 15 :   0.0000 0.5000 0.2500  plane waves:   15002
 k-point 16 :   0.2500 0.5000 0.2500  plane waves:   15003
 k-point 17 :   0.0000-0.2500 0.2500  plane waves:   15013
 k-point 18 :   0.0000 0.0000 0.5000  plane waves:   14984
 k-point 19 :   0.2500 0.0000 0.5000  plane waves:   15008
 k-point 20 :   0.5000 0.0000 0.5000  plane waves:   15044
 k-point 21 :   0.0000 0.2500 0.5000  plane waves:   15008
 k-point 22 :   0.2500 0.2500 0.5000  plane waves:   15006
 k-point 23 :   0.5000 0.2500 0.5000  plane waves:   15006
 k-point 24 :   0.0000 0.5000 0.5000  plane waves:   15044

 maximum and minimum number of plane-waves per node :      3774     3707

 maximum number of plane-waves:     15044
 maximum index in each direction: 
   IXMAX=   16   IYMAX=   16   IZMAX=   16
   IXMIN=  -16   IYMIN=  -16   IZMIN=  -16

 NGX is ok and might be reduce to  66
 NGY is ok and might be reduce to  66
 NGZ is ok and might be reduce to  66

 real space projection operators:
  total allocation   :      41364.84 KBytes
  max/ min on nodes  :      10756.62       9935.47


 parallel 3D FFT for wavefunctions:
    minimum data exchange during FFTs selected (reduces bandwidth)
 parallel 3D FFT for charge:
    minimum data exchange during FFTs selected (reduces bandwidth)


 total amount of memory used by VASP on root node   334145. kBytes
========================================================================

   base      :      30000. kBytes
   nonlr-proj:      20526. kBytes
   fftplans  :      28296. kBytes
   grid      :      21369. kBytes
   one-center:        559. kBytes
   wavefun   :     233395. kBytes

     INWAV:  cpu time    0.0000: real time    0.0001
 Broyden mixing: mesh for mixing (old mesh)
   NGX = 33   NGY = 33   NGZ = 33
  (NGX  =140   NGY  =140   NGZ  =140)
  gives a total of  35937 points

 initial charge density was supplied:
 charge density of overlapping atoms calculated
 number of electron     432.0000000 magnetization      36.0000000
 keeping initial charge density in first step


--------------------------------------------------------------------------------------------------------


 Maximum index for non-local projection operator         1589
 Maximum index for augmentation-charges         6365 (set IRDMAX)


--------------------------------------------------------------------------------------------------------


 First call to EWALD:  gamma=   0.169
 Maximum number of real-space cells 3x 3x 3
 Maximum number of reciprocal cells 3x 3x 3

 FEWALD executed in parallel
    FEWALD:  cpu time    0.0120: real time    0.0134


----------------------------------------- Iteration    1(   1)  ---------------------------------------


    POTLOK:  cpu time    1.1200: real time    1.1255
    SETDIJ:  cpu time    1.3480: real time    1.3507
     EDDAV:  cpu time  567.9160: real time  569.9620
       DOS:  cpu time    0.0320: real time    0.0340
    --------------------------------------------
      LOOP:  cpu time  570.4200: real time  572.4788

 eigenvalue-minimisations  : 29112
 total energy-change (2. order) : 0.3243844E+04  (-0.1143941E+05)
 number of electron     432.0000000 magnetization      36.0000000
 augmentation part      432.0000000 magnetization      36.0000000

 Free energy of the ion-electron system (eV)
  ---------------------------------------------------
  alpha Z        PSCENC =      1700.89082154
  Ewald energy   TEWEN  =    -21116.09664044
  -Hartree energ DENC   =     -3907.79192629
  -exchange      EXHF   =         0.00000000
  -V(xc)+E(xc)   XCENC  =      -848.05980200
  PAW double counting   =     14295.91323732   -12980.49464661
  entropy T*S    EENTRO =        -0.00309820
  eigenvalues    EBANDS =      4970.27691591
  atomic energy  EATOM  =     21129.20924906
  Solvation  Ediel_sol  =         0.00000000
  ---------------------------------------------------
  free energy    TOTEN  =      3243.84411030 eV

  energy without entropy =     3243.84720850  energy(sigma->0) =     3243.84514303


--------------------------------------------------------------------------------------------------------




----------------------------------------- Iteration    1(   2)  ---------------------------------------


     EDDAV:  cpu time  691.3000: real time  693.7934
       DOS:  cpu time    0.0400: real time    0.0386
    --------------------------------------------
      LOOP:  cpu time  691.4000: real time  694.0063

 eigenvalue-minimisations  : 28800
 total energy-change (2. order) :-0.3328629E+04  (-0.3197085E+04)
 number of electron     432.0000000 magnetization      36.0000000
 augmentation part      432.0000000 magnetization      36.0000000

 Free energy of the ion-electron system (eV)
  ---------------------------------------------------
  alpha Z        PSCENC =      1700.89082154
  Ewald energy   TEWEN  =    -21116.09664044
  -Hartree energ DENC   =     -3907.79192629
  -exchange      EXHF   =         0.00000000
  -V(xc)+E(xc)   XCENC  =      -848.05980200
  PAW double counting   =     14295.91323732   -12980.49464661
  entropy T*S    EENTRO =        -0.00742283
  eigenvalues    EBANDS =      1641.65237418
  atomic energy  EATOM  =     21129.20924906
  Solvation  Ediel_sol  =         0.00000000
  ---------------------------------------------------
  free energy    TOTEN  =       -84.78475605 eV

  energy without entropy =      -84.77733323  energy(sigma->0) =      -84.78228178


--------------------------------------------------------------------------------------------------------




----------------------------------------- Iteration    1(   3)  ---------------------------------------


     EDDAV:  cpu time  956.2440: real time  959.8729
       DOS:  cpu time    0.0400: real time    0.0415
    --------------------------------------------
      LOOP:  cpu time  956.3400: real time  959.9793

 eigenvalue-minimisations  : 42464
 total energy-change (2. order) :-0.4173780E+03  (-0.3741048E+03)
 number of electron     432.0000000 magnetization      36.0000000
 augmentation part      432.0000000 magnetization      36.0000000

 Free energy of the ion-electron system (eV)
  ---------------------------------------------------
  alpha Z        PSCENC =      1700.89082154
  Ewald energy   TEWEN  =    -21116.09664044
  -Hartree energ DENC   =     -3907.79192629
  -exchange      EXHF   =         0.00000000
  -V(xc)+E(xc)   XCENC  =      -848.05980200
  PAW double counting   =     14295.91323732   -12980.49464661
  entropy T*S    EENTRO =        -0.06904329
  eigenvalues    EBANDS =      1224.33600296
  atomic energy  EATOM  =     21129.20924906
  Solvation  Ediel_sol  =         0.00000000
  ---------------------------------------------------
  free energy    TOTEN  =      -502.16274773 eV

  energy without entropy =     -502.09370444  energy(sigma->0) =     -502.13973330


--------------------------------------------------------------------------------------------------------




----------------------------------------- Iteration    1(   4)  ---------------------------------------


     EDDAV:  cpu time  779.3640: real time  781.1206
       DOS:  cpu time    0.0440: real time    0.0436
    --------------------------------------------
      LOOP:  cpu time  779.4800: real time  781.8185

 eigenvalue-minimisations  : 46376
 total energy-change (2. order) :-0.4174063E+02  (-0.3700400E+02)
 number of electron     432.0000000 magnetization      36.0000000
 augmentation part      432.0000000 magnetization      36.0000000

 Free energy of the ion-electron system (eV)
  ---------------------------------------------------
  alpha Z        PSCENC =      1700.89082154
  Ewald energy   TEWEN  =    -21116.09664044
  -Hartree energ DENC   =     -3907.79192629
  -exchange      EXHF   =         0.00000000
  -V(xc)+E(xc)   XCENC  =      -848.05980200
  PAW double counting   =     14295.91323732   -12980.49464661
  entropy T*S    EENTRO =        -0.05587629
  eigenvalues    EBANDS =      1182.58220379
  atomic energy  EATOM  =     21129.20924906
  Solvation  Ediel_sol  =         0.00000000
  ---------------------------------------------------
  free energy    TOTEN  =      -543.90337991 eV

  energy without entropy =     -543.84750361  energy(sigma->0) =     -543.88475448


--------------------------------------------------------------------------------------------------------




----------------------------------------- Iteration    1(   5)  ---------------------------------------


     EDDAV:  cpu time  888.5640: real time  890.0899
       DOS:  cpu time    0.0440: real time    0.0437
    CHARGE:  cpu time   18.0040: real time   18.0318
    MIXING:  cpu time    0.1000: real time    0.0983
    --------------------------------------------
      LOOP:  cpu time  906.7960: real time  908.3836

 eigenvalue-minimisations  : 49080
 total energy-change (2. order) :-0.2863160E+01  (-0.2702998E+01)
 number of electron     432.0000001 magnetization      39.7578030
 augmentation part       60.2356680 magnetization      21.5582652

 Broyden mixing:
  rms(total) = 0.61263E+01    rms(broyden)= 0.61246E+01
  rms(prec ) = 0.79568E+01
  weight for this iteration     100.00

 Free energy of the ion-electron system (eV)
  ---------------------------------------------------
  alpha Z        PSCENC =      1700.89082154
  Ewald energy   TEWEN  =    -21116.09664044
  -Hartree energ DENC   =     -3907.79192629
  -exchange      EXHF   =         0.00000000
  -V(xc)+E(xc)   XCENC  =      -848.05980200
  PAW double counting   =     14295.91323732   -12980.49464661
  entropy T*S    EENTRO =        -0.05089141
  eigenvalues    EBANDS =      1179.71405847
  atomic energy  EATOM  =     21129.20924906
  Solvation  Ediel_sol  =         0.00000000
  ---------------------------------------------------
  free energy    TOTEN  =      -546.76654035 eV

  energy without entropy =     -546.71564894  energy(sigma->0) =     -546.74957654


--------------------------------------------------------------------------------------------------------




----------------------------------------- Iteration    1(   6)  ---------------------------------------


    POTLOK:  cpu time    1.1280: real time    1.1273
    SETDIJ:  cpu time    1.5440: real time    1.5484
     EDDAV:  cpu time  813.5200: real time  814.8497
       DOS:  cpu time    0.0440: real time    0.0438
    CHARGE:  cpu time   20.3440: real time   20.3832
    MIXING:  cpu time    0.0920: real time    0.0897
    --------------------------------------------
      LOOP:  cpu time  836.6720: real time  838.0497

 eigenvalue-minimisations  : 43664
 total energy-change (2. order) :-0.6824797E+02  (-0.1399572E+03)
 number of electron     432.0000005 magnetization      39.3107382
 augmentation part      144.5011342 magnetization      33.8826862

 Broyden mixing:
  rms(total) = 0.96542E+01    rms(broyden)= 0.96530E+01
  rms(prec ) = 0.13133E+02
  weight for this iteration     100.00

 eigenvalues of (default mixing * dielectric matrix)
  average eigenvalue GAMMA=   0.4032
  0.4032

 Free energy of the ion-electron system (eV)
  ---------------------------------------------------
  alpha Z        PSCENC =      1700.89082154
  Ewald energy   TEWEN  =    -21116.09664044
  -Hartree energ DENC   =     -3186.65226638
  -exchange      EXHF   =         0.00000000
  -V(xc)+E(xc)   XCENC  =      -859.97350504
  PAW double counting   =     13317.91899713   -11921.66898394
  entropy T*S    EENTRO =        -0.22314133
  eigenvalues    EBANDS =       321.58095601
  atomic energy  EATOM  =     21129.20924906
  Solvation  Ediel_sol  =         0.00000000
  ---------------------------------------------------
  free energy    TOTEN  =      -615.01451337 eV

  energy without entropy =     -614.79137205  energy(sigma->0) =     -614.94013293


--------------------------------------------------------------------------------------------------------




----------------------------------------- Iteration    1(   7)  ---------------------------------------


    POTLOK:  cpu time    1.1000: real time    1.0990
    SETDIJ:  cpu time    1.5240: real time    1.5278
     EDDAV:  cpu time  871.5360: real time  873.1222
       DOS:  cpu time    0.0440: real time    0.0454
    CHARGE:  cpu time   21.4080: real time   21.4274
    MIXING:  cpu time    0.1000: real time    0.0999
    --------------------------------------------
      LOOP:  cpu time  895.7120: real time  897.3494

 eigenvalue-minimisations  : 49952
 total energy-change (2. order) : 0.9965983E+02  (-0.6214662E+02)
 number of electron     432.0000002 magnetization      40.7047554
 augmentation part       87.9560039 magnetization      21.3704915

 Broyden mixing:
  rms(total) = 0.50217E+01    rms(broyden)= 0.50202E+01
  rms(prec ) = 0.71226E+01
  weight for this iteration     100.00

 eigenvalues of (default mixing * dielectric matrix)
  average eigenvalue GAMMA=   0.2419
  0.4201  0.0637

 Free energy of the ion-electron system (eV)
  ---------------------------------------------------
  alpha Z        PSCENC =      1700.89082154
  Ewald energy   TEWEN  =    -21116.09664044
  -Hartree energ DENC   =     -3609.03383948
  -exchange      EXHF   =         0.00000000
  -V(xc)+E(xc)   XCENC  =      -846.77812545
  PAW double counting   =     14371.01567326   -13048.97721729
  entropy T*S    EENTRO =         0.02686225
  eigenvalues    EBANDS =       904.38853577
  atomic energy  EATOM  =     21129.20924906
  Solvation  Ediel_sol  =         0.00000000
  ---------------------------------------------------
  free energy    TOTEN  =      -515.35468078 eV

  energy without entropy =     -515.38154303  energy(sigma->0) =     -515.36363486


--------------------------------------------------------------------------------------------------------




----------------------------------------- Iteration    1(   8)  ---------------------------------------


    POTLOK:  cpu time    1.0600: real time    1.0610
    SETDIJ:  cpu time    1.4920: real time    1.4944
     EDDAV:  cpu time  714.4640: real time  715.2044
       DOS:  cpu time    0.0440: real time    0.0433
    CHARGE:  cpu time   20.0120: real time   20.0468
    MIXING:  cpu time    0.0640: real time    0.0644
    --------------------------------------------
      LOOP:  cpu time  737.1360: real time  737.9301

 eigenvalue-minimisations  : 45744
 total energy-change (2. order) : 0.1109707E+02  (-0.8666031E+01)
 number of electron     432.0000002 magnetization      41.3037521
 augmentation part       85.0777119 magnetization      20.5970890

 Broyden mixing:
  rms(total) = 0.36200E+01    rms(broyden)= 0.36195E+01
  rms(prec ) = 0.46966E+01
  weight for this iteration     100.00

 eigenvalues of (default mixing * dielectric matrix)
  average eigenvalue GAMMA=   0.2297
  0.4110  0.1252  0.1528

 Free energy of the ion-electron system (eV)
  ---------------------------------------------------
  alpha Z        PSCENC =      1700.89082154
  Ewald energy   TEWEN  =    -21116.09664044
  -Hartree energ DENC   =     -3615.21453499
  -exchange      EXHF   =         0.00000000
  -V(xc)+E(xc)   XCENC  =      -844.37404877
  PAW double counting   =     14437.89255546   -13120.66766336
  entropy T*S    EENTRO =         0.03148712
  eigenvalues    EBANDS =       924.07116807
  atomic energy  EATOM  =     21129.20924906
  Solvation  Ediel_sol  =         0.00000000
  ---------------------------------------------------
  free energy    TOTEN  =      -504.25760630 eV

  energy without entropy =     -504.28909343  energy(sigma->0) =     -504.26810201


--------------------------------------------------------------------------------------------------------




----------------------------------------- Iteration    1(   9)  ---------------------------------------


    POTLOK:  cpu time    1.1080: real time    1.1120
    SETDIJ:  cpu time    1.4680: real time    1.4727
     EDDAV:  cpu time  748.3480: real time  750.5704
       DOS:  cpu time    0.0440: real time    0.0428
    CHARGE:  cpu time   20.2240: real time   20.2555
    MIXING:  cpu time    0.0600: real time    0.0612
    --------------------------------------------
      LOOP:  cpu time  771.2560: real time  773.5347

 eigenvalue-minimisations  : 45348
 total energy-change (2. order) : 0.1622932E+01  (-0.1110298E+01)
 number of electron     432.0000002 magnetization      39.5175465
 augmentation part       84.5526559 magnetization      18.3306415

 Broyden mixing:
  rms(total) = 0.29882E+01    rms(broyden)= 0.29882E+01
  rms(prec ) = 0.36666E+01
  weight for this iteration     100.00

 eigenvalues of (default mixing * dielectric matrix)
  average eigenvalue GAMMA=   0.4219
  1.0287  0.3836  0.1524  0.1229

 Free energy of the ion-electron system (eV)
  ---------------------------------------------------
  alpha Z        PSCENC =      1700.89082154
  Ewald energy   TEWEN  =    -21116.09664044
  -Hartree energ DENC   =     -3613.36873424
  -exchange      EXHF   =         0.00000000
  -V(xc)+E(xc)   XCENC  =      -843.55717521
  PAW double counting   =     14451.51762189   -13134.93532713
  entropy T*S    EENTRO =         0.05760755
  eigenvalues    EBANDS =       923.64790267
  atomic energy  EATOM  =     21129.20924906
  Solvation  Ediel_sol  =         0.00000000
  ---------------------------------------------------
  free energy    TOTEN  =      -502.63467431 eV

  energy without entropy =     -502.69228186  energy(sigma->0) =     -502.65387682


--------------------------------------------------------------------------------------------------------




----------------------------------------- Iteration    1(  10)  ---------------------------------------


    POTLOK:  cpu time    1.1040: real time    1.1061
    SETDIJ:  cpu time    1.4720: real time    1.4750
     EDDAV:  cpu time  741.1200: real time  742.4469
       DOS:  cpu time    0.0520: real time    0.0515
    CHARGE:  cpu time   22.4320: real time   22.4740
    MIXING:  cpu time    0.1400: real time    0.1388
    --------------------------------------------
      LOOP:  cpu time  766.3200: real time  767.6999

 eigenvalue-minimisations  : 45688
 total energy-change (2. order) : 0.4301696E-02  (-0.1142700E+00)
 number of electron     432.0000002 magnetization      40.0772034
 augmentation part       83.7430659 magnetization      19.4103572

 Broyden mixing:
  rms(total) = 0.32145E+01    rms(broyden)= 0.32145E+01
  rms(prec ) = 0.40180E+01
  weight for this iteration     100.00

 eigenvalues of (default mixing * dielectric matrix)
  average eigenvalue GAMMA=   0.3217
  0.8611  0.3799  0.1703  0.1149  0.0820

 Free energy of the ion-electron system (eV)
  ---------------------------------------------------
  alpha Z        PSCENC =      1700.89082154
  Ewald energy   TEWEN  =    -21116.09664044
  -Hartree energ DENC   =     -3621.02061197
  -exchange      EXHF   =         0.00000000
  -V(xc)+E(xc)   XCENC  =      -845.75411741
  PAW double counting   =     14422.05550694   -13104.29133685
  entropy T*S    EENTRO =         0.03753931
  eigenvalues    EBANDS =       932.33921719
  atomic energy  EATOM  =     21129.20924906
  Solvation  Ediel_sol  =         0.00000000
  ---------------------------------------------------
  free energy    TOTEN  =      -502.63037261 eV

  energy without entropy =     -502.66791192  energy(sigma->0) =     -502.64288571


--------------------------------------------------------------------------------------------------------




----------------------------------------- Iteration    1(  11)  ---------------------------------------


    POTLOK:  cpu time    1.1400: real time    1.1393
    SETDIJ:  cpu time    1.4800: real time    1.4836
     EDDAV:  cpu time  819.7360: real time  820.5264
       DOS:  cpu time    0.0440: real time    0.0470
    CHARGE:  cpu time   21.2640: real time   21.2770
    MIXING:  cpu time    0.1320: real time    0.1354
    --------------------------------------------
      LOOP:  cpu time  843.8040: real time  844.6145

 eigenvalue-minimisations  : 52016
 total energy-change (2. order) :-0.4939385E+00  (-0.2496258E-01)
 number of electron     432.0000002 magnetization      54.1505973
 augmentation part       83.8095842 magnetization      33.4472531

 Broyden mixing:
  rms(total) = 0.32868E+01    rms(broyden)= 0.32868E+01
  rms(prec ) = 0.41837E+01
  weight for this iteration     100.00

 eigenvalues of (default mixing * dielectric matrix)
  average eigenvalue GAMMA=   0.4903
  1.0934  1.0934  0.3419  0.2180  0.1136  0.0817

 Free energy of the ion-electron system (eV)
  ---------------------------------------------------
  alpha Z        PSCENC =      1700.89082154
  Ewald energy   TEWEN  =    -21116.09664044
  -Hartree energ DENC   =     -3619.79258298
  -exchange      EXHF   =         0.00000000
  -V(xc)+E(xc)   XCENC  =      -845.21891436
  PAW double counting   =     14428.90995758   -13111.58897760
  entropy T*S    EENTRO =         0.03978413
  eigenvalues    EBANDS =       930.52299192
  atomic energy  EATOM  =     21129.20924906
  Solvation  Ediel_sol  =         0.00000000
  ---------------------------------------------------
  free energy    TOTEN  =      -503.12431114 eV

  energy without entropy =     -503.16409527  energy(sigma->0) =     -503.13757252


--------------------------------------------------------------------------------------------------------




----------------------------------------- Iteration    1(  12)  ---------------------------------------


    POTLOK:  cpu time    1.1720: real time    1.1749
    SETDIJ:  cpu time    1.6320: real time    1.6300
     EDDAV:  cpu time  843.6360: real time  845.3367
       DOS:  cpu time    0.0440: real time    0.0430
    CHARGE:  cpu time   19.1920: real time   19.2291
    MIXING:  cpu time    0.0760: real time    0.0761
    --------------------------------------------
      LOOP:  cpu time  865.7520: real time  867.4963

 eigenvalue-minimisations  : 52504
 total energy-change (2. order) :-0.6882088E+01  (-0.1077075E+01)
 number of electron     432.0000002 magnetization      63.2317682
 augmentation part       84.6218375 magnetization      40.1978990

 Broyden mixing:
  rms(total) = 0.34681E+01    rms(broyden)= 0.34678E+01
  rms(prec ) = 0.49736E+01
  weight for this iteration     100.00

 eigenvalues of (default mixing * dielectric matrix)
  average eigenvalue GAMMA=   0.5100
  1.3112  1.3112  0.3529  0.1976  0.1976  0.1080  0.0916

 Free energy of the ion-electron system (eV)
  ---------------------------------------------------
  alpha Z        PSCENC =      1700.89082154
  Ewald energy   TEWEN  =    -21116.09664044
  -Hartree energ DENC   =     -3604.85488832
  -exchange      EXHF   =         0.00000000
  -V(xc)+E(xc)   XCENC  =      -831.47400071
  PAW double counting   =     14566.55510327   -13260.66837792
  entropy T*S    EENTRO =         0.03151379
  eigenvalues    EBANDS =       906.40082106
  atomic energy  EATOM  =     21129.20924906
  Solvation  Ediel_sol  =         0.00000000
  ---------------------------------------------------
  free energy    TOTEN  =      -510.00639866 eV

  energy without entropy =     -510.03791246  energy(sigma->0) =     -510.01690326


--------------------------------------------------------------------------------------------------------




----------------------------------------- Iteration    1(  13)  ---------------------------------------


    POTLOK:  cpu time    1.1240: real time    1.1258
    SETDIJ:  cpu time    1.5320: real time    1.5365
     EDDAV:  cpu time  808.0160: real time  810.4550
       DOS:  cpu time    0.0400: real time    0.0427
    CHARGE:  cpu time   21.2040: real time   21.2392
    MIXING:  cpu time    0.0360: real time    0.0371
    --------------------------------------------
      LOOP:  cpu time  831.9520: real time  834.4470

 eigenvalue-minimisations  : 52976
 total energy-change (2. order) : 0.1527431E+01  (-0.9194710E+00)
 number of electron     432.0000002 magnetization      80.1384100
 augmentation part       85.2026604 magnetization      54.9571101

 Broyden mixing:
  rms(total) = 0.24970E+01    rms(broyden)= 0.24966E+01
  rms(prec ) = 0.33134E+01
  weight for this iteration     100.00

 eigenvalues of (default mixing * dielectric matrix)
  average eigenvalue GAMMA=   0.6265
  1.8005  1.8005  0.5387  0.2760  0.2760  0.1243  0.1100  0.0859

 Free energy of the ion-electron system (eV)
  ---------------------------------------------------
  alpha Z        PSCENC =      1700.89082154
  Ewald energy   TEWEN  =    -21116.09664044
  -Hartree energ DENC   =     -3594.08757991
  -exchange      EXHF   =         0.00000000
  -V(xc)+E(xc)   XCENC  =      -821.02379069
  PAW double counting   =     14647.12346492   -13348.34695082
  entropy T*S    EENTRO =         0.02537030
  eigenvalues    EBANDS =       893.82708880
  atomic energy  EATOM  =     21129.20924906
  Solvation  Ediel_sol  =         0.00000000
  ---------------------------------------------------
  free energy    TOTEN  =      -508.47896724 eV

  energy without entropy =     -508.50433754  energy(sigma->0) =     -508.48742401


--------------------------------------------------------------------------------------------------------




----------------------------------------- Iteration    1(  14)  ---------------------------------------


    POTLOK:  cpu time    1.0280: real time    1.0307
    SETDIJ:  cpu time    1.4040: real time    1.4099
     EDDAV:  cpu time  781.5920: real time  784.0091
       DOS:  cpu time    0.0440: real time    0.0442
    CHARGE:  cpu time   19.8120: real time   19.8420
    MIXING:  cpu time    0.0720: real time    0.0735
    --------------------------------------------
      LOOP:  cpu time  803.9560: real time  806.4260

 eigenvalue-minimisations  : 52216
 total energy-change (2. order) :-0.7673286E+00  (-0.8843609E+00)
 number of electron     432.0000002 magnetization      84.4374954
 augmentation part       87.0802648 magnetization      57.4657503

 Broyden mixing:
  rms(total) = 0.14917E+01    rms(broyden)= 0.14912E+01
  rms(prec ) = 0.20198E+01
  weight for this iteration     100.00

 eigenvalues of (default mixing * dielectric matrix)
  average eigenvalue GAMMA=   0.5963
  1.8592  1.8592  0.5406  0.2882  0.2882  0.2098  0.1270  0.1090  0.0859

 Free energy of the ion-electron system (eV)
  ---------------------------------------------------
  alpha Z        PSCENC =      1700.89082154
  Ewald energy   TEWEN  =    -21116.09664044
  -Hartree energ DENC   =     -3570.06026793
  -exchange      EXHF   =         0.00000000
  -V(xc)+E(xc)   XCENC  =      -803.86472835
  PAW double counting   =     14741.20328826   -13452.19441714
  entropy T*S    EENTRO =         0.02258219
  eigenvalues    EBANDS =       861.64381692
  atomic energy  EATOM  =     21129.20924906
  Solvation  Ediel_sol  =         0.00000000
  ---------------------------------------------------
  free energy    TOTEN  =      -509.24629588 eV

  energy without entropy =     -509.26887807  energy(sigma->0) =     -509.25382328


--------------------------------------------------------------------------------------------------------




----------------------------------------- Iteration    1(  15)  ---------------------------------------


    POTLOK:  cpu time    1.1080: real time    1.1084
    SETDIJ:  cpu time    1.4280: real time    1.4280
     EDDAV:  cpu time  821.3560: real time  822.3070
       DOS:  cpu time    0.0440: real time    0.0448
    CHARGE:  cpu time   19.1720: real time   19.1874
    MIXING:  cpu time    0.0680: real time    0.0679
    --------------------------------------------
      LOOP:  cpu time  843.1760: real time  844.1485

 eigenvalue-minimisations  : 51904
 total energy-change (2. order) : 0.5517489E+00  (-0.3528459E+00)
 number of electron     432.0000002 magnetization      89.3724503
 augmentation part       87.6720431 magnetization      61.9116355

 Broyden mixing:
  rms(total) = 0.89286E+00    rms(broyden)= 0.89256E+00
  rms(prec ) = 0.10481E+01
  weight for this iteration     100.00

 eigenvalues of (default mixing * dielectric matrix)
  average eigenvalue GAMMA=   0.5753
  1.9124  1.9124  0.5075  0.3472  0.3472  0.2312  0.1775  0.0860  0.1101  0.1215

 Free energy of the ion-electron system (eV)
  ---------------------------------------------------
  alpha Z        PSCENC =      1700.89082154
  Ewald energy   TEWEN  =    -21116.09664044
  -Hartree energ DENC   =     -3561.73709964
  -exchange      EXHF   =         0.00000000
  -V(xc)+E(xc)   XCENC  =      -799.51702550
  PAW double counting   =     14767.55965082   -13481.13523570
  entropy T*S    EENTRO =         0.02631982
  eigenvalues    EBANDS =       852.10541302
  atomic energy  EATOM  =     21129.20924906
  Solvation  Ediel_sol  =         0.00000000
  ---------------------------------------------------
  free energy    TOTEN  =      -508.69454701 eV

  energy without entropy =     -508.72086684  energy(sigma->0) =     -508.70332029


--------------------------------------------------------------------------------------------------------




----------------------------------------- Iteration    1(  16)  ---------------------------------------


    POTLOK:  cpu time    1.0440: real time    1.0438
    SETDIJ:  cpu time    1.2960: real time    1.2949
     EDDAV:  cpu time  791.6880: real time  793.1478
       DOS:  cpu time    0.0440: real time    0.0457
    CHARGE:  cpu time   19.8880: real time   19.9056
    MIXING:  cpu time    0.1000: real time    0.1020
    --------------------------------------------
      LOOP:  cpu time  814.0600: real time  815.5448

 eigenvalue-minimisations  : 46656
 total energy-change (2. order) :-0.3122483E+00  (-0.9662754E-01)
 number of electron     432.0000002 magnetization      92.1818299
 augmentation part       88.4218365 magnetization      64.3825186

 Broyden mixing:
  rms(total) = 0.70001E+00    rms(broyden)= 0.69987E+00
  rms(prec ) = 0.84829E+00
  weight for this iteration     100.00

 eigenvalues of (default mixing * dielectric matrix)
  average eigenvalue GAMMA=   0.6401
  2.0192  2.0192  0.7053  0.7053  0.5570  0.2778  0.2778  0.0860  0.1094  0.1249
  0.1591

 Free energy of the ion-electron system (eV)
  ---------------------------------------------------
  alpha Z        PSCENC =      1700.89082154
  Ewald energy   TEWEN  =    -21116.09664044
  -Hartree energ DENC   =     -3549.67550692
  -exchange      EXHF   =         0.00000000
  -V(xc)+E(xc)   XCENC  =      -794.95463375
  PAW double counting   =     14801.61394762   -13518.64179541
  entropy T*S    EENTRO =         0.02632511
  eigenvalues    EBANDS =       838.62143790
  atomic energy  EATOM  =     21129.20924906
  Solvation  Ediel_sol  =         0.00000000
  ---------------------------------------------------
  free energy    TOTEN  =      -509.00679528 eV

  energy without entropy =     -509.03312039  energy(sigma->0) =     -509.01557032


--------------------------------------------------------------------------------------------------------




----------------------------------------- Iteration    1(  17)  ---------------------------------------


    POTLOK:  cpu time    1.0760: real time    1.0783
    SETDIJ:  cpu time    1.4560: real time    1.4613
     EDDAV:  cpu time  945.2120: real time  947.7092
       DOS:  cpu time    0.0400: real time    0.0416
    CHARGE:  cpu time   19.7400: real time   19.7746
    MIXING:  cpu time    0.0840: real time    0.0844
    --------------------------------------------
      LOOP:  cpu time  967.6120: real time  970.1556

 eigenvalue-minimisations  : 51440
 total energy-change (2. order) :-0.2476180E+00  (-0.9490648E-01)
 number of electron     432.0000002 magnetization      97.6706471
 augmentation part       88.8491580 magnetization      69.6688017

 Broyden mixing:
  rms(total) = 0.65942E+00    rms(broyden)= 0.65933E+00
  rms(prec ) = 0.86608E+00
  weight for this iteration     100.00

 eigenvalues of (default mixing * dielectric matrix)
  average eigenvalue GAMMA=   0.7071
  2.3106  2.3106  1.0298  1.0298  0.5819  0.2789  0.2789  0.0860  0.1095  0.1246
  0.1845  0.1597

 Free energy of the ion-electron system (eV)
  ---------------------------------------------------
  alpha Z        PSCENC =      1700.89082154
  Ewald energy   TEWEN  =    -21116.09664044
  -Hartree energ DENC   =     -3542.13632553
  -exchange      EXHF   =         0.00000000
  -V(xc)+E(xc)   XCENC  =      -793.03935160
  PAW double counting   =     14821.25838573   -13540.45271333
  entropy T*S    EENTRO =         0.02712544
  eigenvalues    EBANDS =       831.08503585
  atomic energy  EATOM  =     21129.20924906
  Solvation  Ediel_sol  =         0.00000000
  ---------------------------------------------------
  free energy    TOTEN  =      -509.25441326 eV

  energy without entropy =     -509.28153871  energy(sigma->0) =     -509.26345508


--------------------------------------------------------------------------------------------------------




----------------------------------------- Iteration    1(  18)  ---------------------------------------


    POTLOK:  cpu time    1.0160: real time    1.0199
    SETDIJ:  cpu time    1.3480: real time    1.3526
     EDDAV:  cpu time  919.1280: real time  921.5839
       DOS:  cpu time    0.0440: real time    0.0416
    CHARGE:  cpu time   20.3040: real time   20.3396
    MIXING:  cpu time    0.0720: real time    0.0711
    --------------------------------------------
      LOOP:  cpu time  941.9200: real time  944.4167

 eigenvalue-minimisations  : 51256
 total energy-change (2. order) :-0.1048410E+00  (-0.1080815E+00)
 number of electron     432.0000002 magnetization     100.2551647
 augmentation part       89.6023900 magnetization      71.6687665

 Broyden mixing:
  rms(total) = 0.38038E+00    rms(broyden)= 0.38019E+00
  rms(prec ) = 0.48406E+00
  weight for this iteration     100.00

 eigenvalues of (default mixing * dielectric matrix)
  average eigenvalue GAMMA=   0.7386
  2.3914  2.3914  1.2256  1.2256  0.5723  0.5723  0.2793  0.2793  0.0860  0.1095
  0.1247  0.1597  0.1841

 Free energy of the ion-electron system (eV)
  ---------------------------------------------------
  alpha Z        PSCENC =      1700.89082154
  Ewald energy   TEWEN  =    -21116.09664044
  -Hartree energ DENC   =     -3526.62822899
  -exchange      EXHF   =         0.00000000
  -V(xc)+E(xc)   XCENC  =      -791.51491724
  PAW double counting   =     14859.19599870   -13583.08215449
  entropy T*S    EENTRO =         0.02857513
  eigenvalues    EBANDS =       818.63804243
  atomic energy  EATOM  =     21129.20924906
  Solvation  Ediel_sol  =         0.00000000
  ---------------------------------------------------
  free energy    TOTEN  =      -509.35925431 eV

  energy without entropy =     -509.38782944  energy(sigma->0) =     -509.36877935


--------------------------------------------------------------------------------------------------------




----------------------------------------- Iteration    1(  19)  ---------------------------------------


    POTLOK:  cpu time    1.0960: real time    1.0996
    SETDIJ:  cpu time    1.5280: real time    1.5325
     EDDAV:  cpu time  913.1200: real time  915.7695
       DOS:  cpu time    0.0440: real time    0.0465
    CHARGE:  cpu time   23.2200: real time   23.2550
    MIXING:  cpu time    0.0760: real time    0.0738
    --------------------------------------------
      LOOP:  cpu time  939.0840: real time  941.7847

 eigenvalue-minimisations  : 51608
 total energy-change (2. order) :-0.9994664E-01  (-0.5037256E-01)
 number of electron     432.0000002 magnetization     102.9525039
 augmentation part       89.8178817 magnetization      74.1478975

 Broyden mixing:
  rms(total) = 0.34962E+00    rms(broyden)= 0.34953E+00
  rms(prec ) = 0.48614E+00
  weight for this iteration     100.00

 eigenvalues of (default mixing * dielectric matrix)
  average eigenvalue GAMMA=   0.7037
  2.0702  2.0702  1.5075  1.5075  0.6347  0.6347  0.2790  0.2790  0.0860  0.1095
  0.1247  0.2068  0.1611  0.1807

 Free energy of the ion-electron system (eV)
  ---------------------------------------------------
  alpha Z        PSCENC =      1700.89082154
  Ewald energy   TEWEN  =    -21116.09664044
  -Hartree energ DENC   =     -3522.58129145
  -exchange      EXHF   =         0.00000000
  -V(xc)+E(xc)   XCENC  =      -789.25236560
  PAW double counting   =     14875.67527146   -13601.63950481
  entropy T*S    EENTRO =         0.02601329
  eigenvalues    EBANDS =       814.30924600
  atomic energy  EATOM  =     21129.20924906
  Solvation  Ediel_sol  =         0.00000000
  ---------------------------------------------------
  free energy    TOTEN  =      -509.45920095 eV

  energy without entropy =     -509.48521424  energy(sigma->0) =     -509.46787205


--------------------------------------------------------------------------------------------------------




----------------------------------------- Iteration    1(  20)  ---------------------------------------


    POTLOK:  cpu time    1.1560: real time    1.1597
    SETDIJ:  cpu time    1.3960: real time    1.3975
     EDDAV:  cpu time  920.7840: real time  923.0206
       DOS:  cpu time    0.0440: real time    0.0468
    CHARGE:  cpu time   20.7000: real time   20.7145
    MIXING:  cpu time    0.0880: real time    0.0904
    --------------------------------------------
      LOOP:  cpu time  944.1680: real time  946.4365

 eigenvalue-minimisations  : 50976
 total energy-change (2. order) : 0.2550089E-01  (-0.2580560E-01)
 number of electron     432.0000002 magnetization     102.9741725
 augmentation part       89.9536741 magnetization      73.8899213

 Broyden mixing:
  rms(total) = 0.17764E+00    rms(broyden)= 0.17756E+00
  rms(prec ) = 0.24623E+00
  weight for this iteration     100.00

 eigenvalues of (default mixing * dielectric matrix)
  average eigenvalue GAMMA=   0.7148
  2.1962  2.1962  1.4327  1.4327  0.7740  0.7740  0.5112  0.2791  0.2791  0.0860
  0.1095  0.1247  0.1597  0.1873  0.1802

 Free energy of the ion-electron system (eV)
  ---------------------------------------------------
  alpha Z        PSCENC =      1700.89082154
  Ewald energy   TEWEN  =    -21116.09664044
  -Hartree energ DENC   =     -3518.95000191
  -exchange      EXHF   =         0.00000000
  -V(xc)+E(xc)   XCENC  =      -786.47859984
  PAW double counting   =     14893.36103782   -13621.50602230
  entropy T*S    EENTRO =         0.02004134
  eigenvalues    EBANDS =       810.11641467
  atomic energy  EATOM  =     21129.20924906
  Solvation  Ediel_sol  =         0.00000000
  ---------------------------------------------------
  free energy    TOTEN  =      -509.43370006 eV

  energy without entropy =     -509.45374140  energy(sigma->0) =     -509.44038051


--------------------------------------------------------------------------------------------------------




----------------------------------------- Iteration    1(  21)  ---------------------------------------


    POTLOK:  cpu time    1.1480: real time    1.1470
    SETDIJ:  cpu time    1.3880: real time    1.3930
     EDDAV:  cpu time  804.0560: real time  804.7739
       DOS:  cpu time    0.0440: real time    0.0453
    CHARGE:  cpu time   18.4520: real time   18.4834
    MIXING:  cpu time    0.0960: real time    0.0961
    --------------------------------------------
      LOOP:  cpu time  825.1880: real time  825.9459

 eigenvalue-minimisations  : 45936
 total energy-change (2. order) :-0.6380603E-02  (-0.6853420E-02)
 number of electron     432.0000002 magnetization     103.0309739
 augmentation part       90.0055536 magnetization      73.9652929

 Broyden mixing:
  rms(total) = 0.15728E+00    rms(broyden)= 0.15726E+00
  rms(prec ) = 0.22608E+00
  weight for this iteration     100.00

 eigenvalues of (default mixing * dielectric matrix)
  average eigenvalue GAMMA=   0.7048
  2.2109  2.2109  1.4864  1.4864  0.8219  0.8219  0.5094  0.2796  0.2796  0.3211
  0.0860  0.1095  0.1247  0.1602  0.1883  0.1796

 Free energy of the ion-electron system (eV)
  ---------------------------------------------------
  alpha Z        PSCENC =      1700.89082154
  Ewald energy   TEWEN  =    -21116.09664044
  -Hartree energ DENC   =     -3518.80225166
  -exchange      EXHF   =         0.00000000
  -V(xc)+E(xc)   XCENC  =      -786.71096532
  PAW double counting   =     14893.46917022   -13621.52542491
  entropy T*S    EENTRO =         0.02016950
  eigenvalues    EBANDS =       810.10579136
  atomic energy  EATOM  =     21129.20924906
  Solvation  Ediel_sol  =         0.00000000
  ---------------------------------------------------
  free energy    TOTEN  =      -509.44008066 eV

  energy without entropy =     -509.46025016  energy(sigma->0) =     -509.44680383


--------------------------------------------------------------------------------------------------------




----------------------------------------- Iteration    1(  22)  ---------------------------------------


    POTLOK:  cpu time    1.1000: real time    1.1021
    SETDIJ:  cpu time    1.5120: real time    1.5172
     EDDAV:  cpu time  806.4360: real time  809.0239
       DOS:  cpu time    0.0400: real time    0.0403
    CHARGE:  cpu time   20.4640: real time   20.5057
    MIXING:  cpu time    0.0600: real time    0.0578
    --------------------------------------------
      LOOP:  cpu time  829.6120: real time  832.2545

 eigenvalue-minimisations  : 48592
 total energy-change (2. order) : 0.7435432E-02  (-0.2995509E-02)
 number of electron     432.0000002 magnetization     103.5920045
 augmentation part       90.0180069 magnetization      74.5193188

 Broyden mixing:
  rms(total) = 0.11247E+00    rms(broyden)= 0.11246E+00
  rms(prec ) = 0.16038E+00
  weight for this iteration     100.00

 eigenvalues of (default mixing * dielectric matrix)
  average eigenvalue GAMMA=   0.7643
  2.4675  2.4675  1.6804  1.6804  0.9529  0.9529  0.5933  0.5933  0.2791  0.2791
  0.0860  0.1095  0.1247  0.1600  0.1998  0.1869  0.1801

 Free energy of the ion-electron system (eV)
  ---------------------------------------------------
  alpha Z        PSCENC =      1700.89082154
  Ewald energy   TEWEN  =    -21116.09664044
  -Hartree energ DENC   =     -3518.86031488
  -exchange      EXHF   =         0.00000000
  -V(xc)+E(xc)   XCENC  =      -786.75413454
  PAW double counting   =     14893.60352758   -13621.68886822
  entropy T*S    EENTRO =         0.02005458
  eigenvalues    EBANDS =       810.24366009
  atomic energy  EATOM  =     21129.20924906
  Solvation  Ediel_sol  =         0.00000000
  ---------------------------------------------------
  free energy    TOTEN  =      -509.43264523 eV

  energy without entropy =     -509.45269981  energy(sigma->0) =     -509.43933009


--------------------------------------------------------------------------------------------------------




----------------------------------------- Iteration    1(  23)  ---------------------------------------


    POTLOK:  cpu time    1.0600: real time    1.0630
    SETDIJ:  cpu time    1.6080: real time    1.6068
     EDDAV:  cpu time  945.2040: real time  946.2734
       DOS:  cpu time    0.0520: real time    0.0499
    CHARGE:  cpu time   20.5680: real time   20.6041
    MIXING:  cpu time    0.1640: real time    0.1637
    --------------------------------------------
      LOOP:  cpu time  968.6560: real time  969.7700

 eigenvalue-minimisations  : 50528
 total energy-change (2. order) : 0.1204465E-02  (-0.1293562E-02)
 number of electron     432.0000002 magnetization     103.6603491
 augmentation part       90.0081964 magnetization      74.5230739

 Broyden mixing:
  rms(total) = 0.72073E-01    rms(broyden)= 0.72060E-01
  rms(prec ) = 0.10599E+00
[...]
    FORCOR:  cpu time    0.9120: real time    0.9145
    FORHAR:  cpu time    0.1680: real time    0.1673
    MIXING:  cpu time    0.0360: real time    0.0375
    OFIELD:  cpu time    0.0000: real time    0.0000

  FORCE on cell =-STRESS in cart. coord.  units (eV):
  Direction    XX          YY          ZZ          XY          YZ          ZX
  --------------------------------------------------------------------------------------
  Alpha Z  1700.89082  1700.89082  1700.89082
  Ewald   -7519.88280 -7515.01923 -6081.32164     0.00000   -10.72491    -0.00000
  Hartree   864.50011   867.63411  1785.99145    -0.00000    -2.54694     0.00000
  E(xc)   -1890.18758 -1890.18422 -1900.00719     0.00004     0.17861     0.00000
  Local    1208.93563  1200.59303 -1208.97467    -0.00054    12.63634     0.00000
  n-local   476.02180   475.99683   452.29413    -0.12721    -0.63505    -0.00711
  augment  1017.87853  1017.90676  1058.24208     0.00060    -0.03715    -0.00000
  Kinetic  4143.01351  4142.71524  4194.04673     1.38404    -0.08876     0.00364
  Fock        0.00000     0.00000     0.00000     0.00000     0.00000     0.00000
  -------------------------------------------------------------------------------------
  Total       1.17002     0.53333     1.16171    -0.00000    -1.21787     0.00000
  in kB       1.62397     0.74025     1.61243    -0.00000    -1.69037     0.00000
  external pressure =        1.33 kB  Pullay stress =        0.00 kB


 VOLUME and BASIS-vectors are now :
 -----------------------------------------------------------------------------
  energy-cutoff  :      320.00
  volume of cell :     1154.33
      direct lattice vectors                 reciprocal lattice vectors
    11.000217144  0.000000000  0.000000000     0.090907296  0.052485352 -0.000000000
    -5.500108572  9.526467494  0.000000000     0.000000000  0.104970704  0.000000000
     0.000000000  0.000000000 11.015273102     0.000000000 -0.000000000  0.090783042

  length of vectors
    11.000217144 11.000217144 11.015273102     0.104970704  0.104970704  0.090783042


 FORCES acting on ions
    electron-ion (+dipol)            ewald-force                    non-local-force                 convergence-correction
 -----------------------------------------------------------------------------------------------
   -.272E+00 -.611E+01 0.293E-01   0.308E+00 0.622E+01 -.799E-14   -.390E-01 -.121E+00 -.274E-01   0.179E-03 -.652E-05 -.121E-03
   0.799E+00 0.633E+01 -.433E-01   -.767E+00 -.646E+01 0.568E-12   -.467E-01 0.155E+00 0.403E-01   0.525E-05 0.407E-03 -.155E-04
   -.206E+01 0.258E+00 -.729E-02   0.205E+01 -.256E+00 0.117E-11   0.228E-01 -.402E-02 -.153E-02   -.196E-03 0.295E-04 -.368E-04
   -.962E+01 -.619E-06 0.336E-06   0.983E+01 -.981E-11 -.613E-12   -.214E+00 0.000E+00 0.000E+00   -.449E-04 0.121E-07 -.130E-08
   0.416E+02 0.178E-05 -.833E-06   -.427E+02 -.271E-12 -.238E-12   -.114E+01 0.000E+00 0.000E+00   0.509E-03 0.599E-08 -.397E-08
   -.120E+02 -.272E-06 0.885E-07   0.123E+02 0.983E-11 0.575E-12   -.338E+00 0.000E+00 0.000E+00   -.491E-03 -.265E-08 0.152E-08
   -.206E+01 -.258E+00 0.729E-02   0.205E+01 0.256E+00 -.119E-11   0.228E-01 0.402E-02 0.153E-02   -.196E-03 -.295E-04 0.368E-04
   -.272E+00 0.611E+01 -.293E-01   0.308E+00 -.622E+01 -.641E-12   -.390E-01 0.121E+00 0.274E-01   0.179E-03 0.651E-05 0.121E-03
   0.799E+00 -.633E+01 0.433E-01   -.767E+00 0.646E+01 0.124E-13   -.467E-01 -.155E+00 -.403E-01   0.523E-05 -.407E-03 0.155E-04
   0.237E+00 -.690E+00 -.970E-02   -.226E+00 0.685E+00 -.160E-13   -.110E-01 0.955E-02 0.183E-01   -.184E-03 -.393E-03 0.121E-03
   0.370E+00 0.630E+00 0.108E-01   -.361E+00 -.624E+00 0.632E-12   -.633E-02 -.766E-02 -.200E-01   0.232E-03 -.291E-03 0.450E-04
   -.636E+00 0.652E-01 0.884E-03   0.597E+00 -.627E-01 0.112E-11   0.158E-01 -.253E-02 0.491E-02   -.477E-04 0.122E-04 0.409E-04
   -.928E+00 0.795E-08 0.401E-09   0.932E+00 -.980E-11 -.573E-12   0.564E-02 0.000E+00 0.000E+00   -.468E-03 0.332E-08 0.427E-08
   0.175E+01 0.369E-08 0.405E-08   -.173E+01 0.142E-13 -.115E-13   -.270E-01 0.000E+00 0.000E+00   0.130E-03 0.480E-08 0.355E-09
   -.750E+00 -.664E-08 -.646E-08   0.749E+00 0.984E-11 0.525E-12   0.648E-02 0.000E+00 0.000E+00   0.341E-03 -.162E-07 -.494E-08
   -.636E+00 -.652E-01 -.884E-03   0.597E+00 0.627E-01 -.113E-11   0.158E-01 0.253E-02 -.491E-02   -.477E-04 -.122E-04 -.409E-04
   0.237E+00 0.690E+00 0.970E-02   -.226E+00 -.685E+00 -.668E-12   -.110E-01 -.955E-02 -.183E-01   -.184E-03 0.393E-03 -.121E-03
   0.370E+00 -.630E+00 -.108E-01   -.361E+00 0.624E+00 -.213E-13   -.633E-02 0.766E-02 0.200E-01   0.232E-03 0.291E-03 -.450E-04
   0.198E+00 -.226E+01 -.148E+01   -.270E+00 0.221E+01 0.144E+01   0.673E-01 0.588E-01 0.491E-01   0.206E-04 -.110E-03 0.108E-04
   0.628E+00 0.217E+01 0.146E+01   -.703E+00 -.213E+01 -.142E+01   0.704E-01 -.611E-01 -.533E-01   0.281E-04 0.484E-04 0.116E-03
   -.124E+01 0.151E+00 0.786E-01   0.121E+01 -.141E+00 -.671E-01   0.243E-01 -.122E-01 -.105E-01   -.471E-04 0.338E-05 -.158E-03
   -.328E+01 0.582E-01 -.251E+01   0.330E+01 -.980E-11 0.253E+01   -.267E-02 -.460E-01 -.135E-01   -.114E-03 -.532E-04 -.156E-03
   0.101E+02 -.169E-01 -.193E+01   -.102E+02 0.160E-13 0.194E+01   0.855E-01 0.943E-02 0.160E-01   0.213E-03 -.577E-04 0.992E-03
   -.329E+01 -.182E-01 0.329E+01   0.330E+01 0.983E-11 -.328E+01   0.161E-01 0.285E-01 -.250E-01   -.794E-04 -.212E-04 0.226E-03
   -.121E+01 -.146E+00 0.644E-01   0.121E+01 0.141E+00 -.671E-01   0.193E-02 0.654E-02 -.596E-02   -.938E-04 0.567E-04 -.161E-03
   0.232E+00 0.210E+01 -.139E+01   -.270E+00 -.221E+01 0.144E+01   0.307E-01 0.911E-01 -.484E-01   0.108E-04 0.138E-03 0.148E-04
   0.692E+00 -.201E+01 0.138E+01   -.703E+00 0.213E+01 -.142E+01   0.122E-01 -.104E+00 0.453E-01   0.805E-04 -.787E-05 0.144E-03
   0.232E+00 -.210E+01 0.139E+01   -.270E+00 0.221E+01 -.144E+01   0.307E-01 -.911E-01 0.484E-01   0.108E-04 -.138E-03 -.148E-04
   0.692E+00 0.201E+01 -.138E+01   -.703E+00 -.213E+01 0.142E+01   0.122E-01 0.104E+00 -.453E-01   0.805E-04 0.786E-05 -.144E-03
   -.121E+01 0.146E+00 -.644E-01   0.121E+01 -.141E+00 0.671E-01   0.193E-02 -.654E-02 0.596E-02   -.938E-04 -.567E-04 0.161E-03
   -.328E+01 -.582E-01 0.251E+01   0.330E+01 -.981E-11 -.253E+01   -.267E-02 0.460E-01 0.135E-01   -.114E-03 0.532E-04 0.156E-03
   0.101E+02 0.169E-01 0.193E+01   -.102E+02 0.213E-13 -.194E+01   0.855E-01 -.943E-02 -.160E-01   0.213E-03 0.577E-04 -.992E-03
   -.329E+01 0.182E-01 -.329E+01   0.330E+01 0.984E-11 0.328E+01   0.161E-01 -.285E-01 0.250E-01   -.794E-04 0.212E-04 -.226E-03
   -.124E+01 -.151E+00 -.786E-01   0.121E+01 0.141E+00 0.671E-01   0.243E-01 0.122E-01 0.105E-01   -.471E-04 -.338E-05 0.158E-03
   0.198E+00 0.226E+01 0.148E+01   -.270E+00 -.221E+01 -.144E+01   0.673E-01 -.588E-01 -.491E-01   0.206E-04 0.110E-03 -.108E-04
   0.628E+00 -.217E+01 -.146E+01   -.703E+00 0.213E+01 0.142E+01   0.704E-01 0.611E-01 0.533E-01   0.281E-04 -.484E-04 -.116E-03
   0.285E+00 -.728E-01 -.185E-01   -.276E+00 0.710E-01 0.202E-01   -.323E-02 0.300E-02 -.111E-03   -.162E-04 -.127E-03 0.956E-04
   -.146E+00 0.625E+00 0.982E-01   0.128E+00 -.626E+00 -.899E-01   0.220E-01 0.126E-01 -.159E-01   0.507E-04 0.128E-03 0.743E-05
   -.156E+00 -.551E+00 -.762E-01   0.142E+00 0.557E+00 0.710E-01   0.120E-01 -.145E-01 0.157E-01   -.352E-04 0.421E-04 0.519E-04
   0.332E+00 -.491E+00 -.138E+01   -.331E+00 0.493E+00 0.139E+01   -.837E-02 -.333E-02 -.362E-01   -.330E-03 -.269E-03 0.397E-03
   0.677E+00 0.476E+00 0.138E+01   -.677E+00 -.475E+00 -.137E+01   -.921E-02 0.411E-02 -.565E-02   0.419E-03 -.183E-03 0.347E-03
   -.118E+01 0.382E-01 0.765E-01   0.116E+01 -.305E-01 -.682E-01   -.363E-02 -.131E-01 -.125E-01   -.910E-04 -.650E-04 -.876E-04
   -.701E+00 0.498E+00 -.538E+00   0.682E+00 -.485E+00 0.515E+00   0.357E-01 -.216E-01 0.533E-01   -.205E-03 0.785E-04 -.244E-04
   0.133E+01 0.848E-01 -.105E+00   -.133E+01 -.906E-01 0.124E+00   -.451E-03 0.436E-02 -.208E-01   0.961E-04 0.382E-03 0.364E-03
   -.579E+00 -.576E+00 0.647E+00   0.573E+00 0.564E+00 -.617E+00   0.237E-01 0.172E-01 -.599E-01   0.110E-03 0.140E-04 -.337E-04
   0.937E+00 -.235E+00 0.495E-01   -.945E+00 0.238E+00 -.476E-01   0.119E-01 -.433E-02 -.140E-02   0.913E-04 0.308E-04 0.617E-04
   -.411E+00 0.164E+01 -.147E+00   0.433E+00 -.165E+01 0.142E+00   -.286E-01 0.715E-02 0.144E-02   -.484E-04 0.490E-04 0.121E-03
   -.424E+00 -.144E+01 0.104E+00   0.420E+00 0.145E+01 -.104E+00   0.144E-02 -.832E-02 0.463E-03   -.435E-04 -.162E-03 0.100E-03
   -.702E+01 -.814E+01 0.104E+02   0.699E+01 0.815E+01 -.105E+02   0.324E+00 0.122E+00 -.171E+00   0.312E-03 0.560E-04 0.856E-06
   -.601E+01 0.111E+02 -.142E+02   0.581E+01 -.109E+02 0.141E+02   0.101E+01 -.668E+00 0.873E+00   -.854E-04 0.227E-03 -.400E-03
   -.311E+01 0.857E-01 -.126E+00   0.314E+01 -.105E+00 0.123E+00   -.371E-01 0.195E-01 -.606E-02   -.300E-03 0.111E-04 0.383E-04
   -.265E+01 0.185E+01 0.107E+01   0.264E+01 -.185E+01 -.106E+01   0.396E-02 0.510E-02 -.105E-01   0.614E-06 0.140E-03 0.238E-03
   0.941E+01 0.166E+01 0.107E+01   -.941E+01 -.167E+01 -.107E+01   0.805E-01 -.787E-01 -.630E-01   0.186E-03 -.190E-03 -.894E-04
   -.277E+01 -.242E+01 -.142E+01   0.273E+01 0.239E+01 0.140E+01   0.609E-01 0.364E-01 0.329E-01   -.164E-03 -.144E-03 -.750E-04
   -.265E+01 -.185E+01 -.107E+01   0.264E+01 0.185E+01 0.106E+01   0.396E-02 -.510E-02 0.105E-01   0.614E-06 -.140E-03 -.238E-03
   0.941E+01 -.166E+01 -.107E+01   -.941E+01 0.167E+01 0.107E+01   0.805E-01 0.787E-01 0.630E-01   0.186E-03 0.190E-03 0.894E-04
   -.277E+01 0.242E+01 0.142E+01   0.273E+01 -.239E+01 -.140E+01   0.609E-01 -.364E-01 -.329E-01   -.164E-03 0.144E-03 0.750E-04
   -.311E+01 -.857E-01 0.126E+00   0.314E+01 0.105E+00 -.123E+00   -.371E-01 -.195E-01 0.606E-02   -.300E-03 -.111E-04 -.383E-04
   -.702E+01 0.814E+01 -.104E+02   0.699E+01 -.815E+01 0.105E+02   0.324E+00 -.122E+00 0.171E+00   0.312E-03 -.560E-04 -.855E-06
   -.601E+01 -.111E+02 0.142E+02   0.581E+01 0.109E+02 -.141E+02   0.101E+01 0.668E+00 -.873E+00   -.854E-04 -.227E-03 0.400E-03
   -.411E+00 -.164E+01 0.147E+00   0.433E+00 0.165E+01 -.142E+00   -.286E-01 -.715E-02 -.144E-02   -.484E-04 -.490E-04 -.121E-03
   -.424E+00 0.144E+01 -.104E+00   0.420E+00 -.145E+01 0.104E+00   0.144E-02 0.832E-02 -.463E-03   -.435E-04 0.162E-03 -.100E-03
   0.937E+00 0.235E+00 -.495E-01   -.945E+00 -.238E+00 0.476E-01   0.119E-01 0.433E-02 0.140E-02   0.913E-04 -.308E-04 -.617E-04
   -.701E+00 -.498E+00 0.538E+00   0.682E+00 0.485E+00 -.515E+00   0.357E-01 0.216E-01 -.533E-01   -.205E-03 -.785E-04 0.244E-04
   0.133E+01 -.848E-01 0.105E+00   -.133E+01 0.906E-01 -.124E+00   -.451E-03 -.436E-02 0.208E-01   0.961E-04 -.382E-03 -.364E-03
   -.579E+00 0.576E+00 -.647E+00   0.573E+00 -.564E+00 0.617E+00   0.237E-01 -.172E-01 0.599E-01   0.110E-03 -.140E-04 0.337E-04
   -.118E+01 -.382E-01 -.765E-01   0.116E+01 0.305E-01 0.682E-01   -.363E-02 0.131E-01 0.125E-01   -.910E-04 0.650E-04 0.876E-04
   0.332E+00 0.491E+00 0.138E+01   -.331E+00 -.493E+00 -.139E+01   -.837E-02 0.333E-02 0.362E-01   -.330E-03 0.269E-03 -.397E-03
   0.677E+00 -.476E+00 -.138E+01   -.677E+00 0.475E+00 0.137E+01   -.921E-02 -.411E-02 0.565E-02   0.419E-03 0.183E-03 -.347E-03
   -.146E+00 -.625E+00 -.982E-01   0.128E+00 0.626E+00 0.899E-01   0.220E-01 -.126E-01 0.159E-01   0.507E-04 -.128E-03 -.743E-05
   -.156E+00 0.551E+00 0.762E-01   0.142E+00 -.557E+00 -.710E-01   0.120E-01 0.145E-01 -.157E-01   -.352E-04 -.421E-04 -.519E-04
   0.285E+00 0.728E-01 0.185E-01   -.276E+00 -.710E-01 -.202E-01   -.323E-02 -.300E-02 0.111E-03   -.162E-04 0.127E-03 -.956E-04
 -----------------------------------------------------------------------------------------------
   -.177E+01 0.652E-06 -.384E-06   0.111E-13 -.143E-12 -.460E-12   0.177E+01 0.221E-16 0.748E-16   -.112E-03 -.940E-08 -.691E-08


 POSITION                                       TOTAL-FORCE (eV/Angst)
 -----------------------------------------------------------------------------------
      3.66674      6.35098      0.00000        -0.002735     -0.012001      0.001793
     -3.66674      6.35098      0.00000        -0.014128      0.022278     -0.002974
     -0.00000      6.35098      0.00000         0.014308     -0.001685     -0.008857
      7.33348      0.00000      0.00000        -0.006992      0.000000      0.000000
      0.33001      0.00000      0.00000        -2.242948      0.000000      0.000000
      3.66674      0.00000      0.00000        -0.088184      0.000000      0.000000
      5.50011      3.17549      0.00000         0.014308      0.001685      0.008857
     -1.83337      3.17549      0.00000        -0.002735      0.012001     -0.001793
      1.83337      3.17549      0.00000        -0.014128     -0.022278      0.002974
      3.66674      6.35098      5.50764        -0.000308      0.004262      0.008701
     -3.66674      6.35098      5.50764         0.003395     -0.001998     -0.009190
     -0.00000      6.35098      5.50764        -0.023725     -0.000044      0.005839
      7.33348      0.00000      5.50764         0.009539      0.000000      0.000000
      0.00000      0.00000      5.50764        -0.007940      0.000000      0.000000
      3.66674      0.00000      5.50764         0.005583      0.000000      0.000000
      5.50011      3.17549      5.50764        -0.023725      0.000044     -0.005839
     -1.83337      3.17549      5.50764        -0.000308     -0.004262     -0.008701
      1.83337      3.17549      5.50764         0.003395      0.001998      0.009190
      3.66674      6.35098      8.26145        -0.004713      0.005768      0.005015
     -3.66674      6.35098      8.26145        -0.004694     -0.018016     -0.010785
     -0.00000      6.35098      8.26145         0.001070     -0.002336      0.000850
      7.33348      0.00000      8.26145         0.015627      0.012097      0.004812
      0.00000      0.00000      8.26145        -0.041136     -0.007487      0.025798
      3.66674      0.00000      8.26145         0.027214      0.010359     -0.013736
      5.50011      3.17549      8.26145         0.000693      0.001691     -0.008840
     -1.83337      3.17549      8.26145        -0.007363     -0.018862      0.001612
      1.83337      3.17549      8.26145         0.001916      0.012633      0.004726
      3.66674      6.35098      2.75382        -0.007363      0.018862     -0.001612
     -3.66674      6.35098      2.75382         0.001916     -0.012633     -0.004726
     -0.00000      6.35098      2.75382         0.000693     -0.001691      0.008840
      7.33348      0.00000      2.75382         0.015627     -0.012097     -0.004812
      0.00000      0.00000      2.75382        -0.041136      0.007487     -0.025798
      3.66674      0.00000      2.75382         0.027214     -0.010359      0.013736
      5.50011      3.17549      2.75382         0.001070      0.002336     -0.000850
     -1.83337      3.17549      2.75382        -0.004713     -0.005768     -0.005015
      1.83337      3.17549      2.75382        -0.004694      0.018016      0.010785
      5.50011      5.29248      6.88455         0.005129      0.001013      0.001683
     -1.83337      5.29248      6.88455         0.004617      0.012141     -0.007602
      1.83337      5.29248      6.88455        -0.002271     -0.008563      0.010630
      3.66674      8.46797      6.88455        -0.008241     -0.000813     -0.025811
     -3.66674      8.46797      6.88455        -0.008705      0.005527      0.011165
     -0.00000      8.46797      6.88455        -0.015752     -0.005531     -0.004193
      7.33348      2.11699      6.88455         0.016285     -0.007903      0.029603
     -0.00000      2.11699      6.88455        -0.002783     -0.001095     -0.001582
      3.66674      2.11699      6.88455         0.018225      0.005781     -0.030000
      5.50011      5.29248      1.37691         0.004150     -0.001429      0.000488
     -1.83337      5.29248      1.37691        -0.006989     -0.000524     -0.002760
      1.83337      5.29248      1.37691        -0.002460      0.005586      0.000774
      3.66674      8.46797      1.37691         0.297725      0.126025     -0.222196
     -3.66674      8.46797      1.37691         0.804224     -0.494586      0.739957
     -0.00000      8.46797      1.37691        -0.005345      0.000083     -0.008622
      7.33348      2.11699      1.37691        -0.007268      0.005176      0.001471
     -0.00000      2.11699      1.37691         0.084355     -0.090627     -0.062608
      3.66674      2.11699      1.37691         0.025153      0.011568      0.008381
      1.83337      7.40947      9.63836        -0.007268     -0.005176     -0.001471
      5.50011      7.40947      9.63836         0.084355      0.090627      0.062608
     -1.83337      7.40947      9.63836         0.025153     -0.011568     -0.008381
      5.50011      1.05850      9.63836        -0.005345     -0.000083      0.008622
      9.16685      1.05850      9.63836         0.297725     -0.126025      0.222196
      1.83337      1.05850      9.63836         0.804224      0.494586     -0.739957
      3.66674      4.23399      9.63836        -0.006989      0.000524      0.002760
      7.33348      4.23399      9.63836        -0.002460     -0.005586     -0.000774
     -0.00000      4.23399      9.63836         0.004150      0.001429     -0.000488
      1.83337      7.40947      4.13073         0.016285      0.007903     -0.029603
      5.50011      7.40947      4.13073        -0.002783      0.001095      0.001582
     -1.83337      7.40947      4.13073         0.018225     -0.005781      0.030000
      5.50011      1.05850      4.13073        -0.015752      0.005531      0.004193
      9.16685      1.05850      4.13073        -0.008241      0.000813      0.025811
      1.83337      1.05850      4.13073        -0.008705     -0.005527     -0.011165
      3.66674      4.23399      4.13073         0.004617     -0.012141      0.007602
      7.33348      4.23399      4.13073        -0.002271      0.008563     -0.010630
     -0.00000      4.23399      4.13073         0.005129     -0.001013     -0.001683
 -----------------------------------------------------------------------------------
    total drift:                               -0.006213      0.000001     -0.000000


--------------------------------------------------------------------------------------------------------



  FREE ENERGIE OF THE ION-ELECTRON SYSTEM (eV)
  ---------------------------------------------------
  free  energy   TOTEN  =      -509.42924382 eV

  energy  without entropy=     -509.44784685  energy(sigma->0) =     -509.43544483



--------------------------------------------------------------------------------------------------------


    POTLOK:  cpu time    2.0440: real time    2.0440


--------------------------------------------------------------------------------------------------------


     LOOP+:  cpu time31281.0720: real time31360.7765
    4ORBIT:  cpu time    0.0000: real time    0.0000

 total amount of memory used by VASP on root node   334145. kBytes
========================================================================

   base      :      30000. kBytes
   nonlr-proj:      20526. kBytes
   fftplans  :      28296. kBytes
   grid      :      21369. kBytes
   one-center:        559. kBytes
   wavefun   :     233395. kBytes

  
  
 General timing and accounting informations for this job:
 ========================================================
  
                  Total CPU time used (sec):    31376.859
                            User time (sec):    31252.552
                          System time (sec):      124.308
                         Elapsed time (sec):    31456.777
  
                   Maximum memory used (kb):      385588.
                   Average memory used (kb):           0.
  
                          Minor page faults:        95258
                          Major page faults:            0
                 Voluntary context switches:          569
