 vasp.5.4.1 24Jun15 (build Oct  9 2015 14:58:31) complex                         
 executed on           IFC91_ompi date 2017.05.25  07:06:42
 running on   16 total cores
 distrk:  each k-point on   16 cores,    1 groups
 distr:  one band on NCORES_PER_BAND=   4 cores,    4 groups


--------------------------------------------------------------------------------------------------------


 INCAR:
 POTCAR:   PAW_PBE Mn 06Sep2000                   
 POTCAR:   PAW_PBE As 06Sep2000                   
 POTCAR:   PAW_PBE Mn 06Sep2000                   
   VRHFIN =Mn: d6 s1                                                            
   LEXCH  = PE                                                                  
   EATOM  =   416.8732 eV,   30.6393 Ry                                         
                                                                                
   TITEL  = PAW_PBE Mn 06Sep2000                                                
   LULTRA =        F    use ultrasoft PP ?                                      
   IUNSCR =        1    unscreen: 0-lin 1-nonlin 2-no                           
   RPACOR =    2.000    partial core radius                                     
   POMASS =   54.938; ZVAL   =    7.000    mass and valenz                      
   RCORE  =    2.300    outmost cutoff radius                                   
   RWIGS  =    2.500; RWIGS  =    1.323    wigner-seitz radius (au A)           
   ENMAX  =  269.865; ENMIN  =  202.399 eV                                      
   RCLOC  =    1.725    cutoff for local pot                                    
   LCOR   =        T    correct aug charges                                     
   LPAW   =        T    paw PP                                                  
   EAUG   =  500.711                                                            
   DEXC   =    -.071                                                            
   RMAX   =    2.807    core radius for proj-oper                               
   RAUG   =    1.300    factor for augmentation sphere                          
   RDEP   =    2.338    radius for radial grids                                 
   QCUT   =   -4.454; QGAM   =    8.907    optimization parameters              
                                                                                
   Description                                                                  
     l     E      TYP  RCUT    TYP  RCUT                                        
     2   .000     23  2.300                                                     
     2   .000     23  2.300                                                     
     0   .000     23  2.300                                                     
     0   .000     23  2.300                                                     
     1  -.200     23  2.300                                                     
     1  1.500     23  2.300                                                     
     3   .000      7   .000                                                     
  local pseudopotential read in
  partial core-charges read in
  atomic valenz-charges read in
  non local Contribution for L=           2  read in
    real space projection operators read in
  non local Contribution for L=           2  read in
    real space projection operators read in
  non local Contribution for L=           0  read in
    real space projection operators read in
  non local Contribution for L=           0  read in
    real space projection operators read in
  non local Contribution for L=           1  read in
    real space projection operators read in
  non local Contribution for L=           1  read in
    real space projection operators read in
    PAW grid and wavefunctions read in

   number of l-projection  operators is LMAX  =           6
   number of lm-projection operators is LMMAX =          18

 POTCAR:   PAW_PBE As 06Sep2000                   
   VRHFIN =As: s2p3                                                             
   LEXCH  = PE                                                                  
   EATOM  =   170.0753 eV,   12.5002 Ry                                         
                                                                                
   TITEL  = PAW_PBE As 06Sep2000                                                
   LULTRA =        F    use ultrasoft PP ?                                      
   IUNSCR =        1    unscreen: 0-lin 1-nonlin 2-no                           
   RPACOR =    1.900    partial core radius                                     
   POMASS =   74.922; ZVAL   =    5.000    mass and valenz                      
   RCORE  =    2.100    outmost cutoff radius                                   
   RWIGS  =    2.300; RWIGS  =    1.217    wigner-seitz radius (au A)           
   ENMAX  =  208.680; ENMIN  =  156.510 eV                                      
   ICORE  =        3    local potential                                         
   LCOR   =        T    correct aug charges                                     
   LPAW   =        T    paw PP                                                  
   EAUG   =  462.758                                                            
   DEXC   =    -.108                                                            
   RMAX   =    3.192    core radius for proj-oper                               
   RAUG   =    1.300    factor for augmentation sphere                          
   RDEP   =    2.140    radius for radial grids                                 
   QCUT   =   -3.916; QGAM   =    7.833    optimization parameters              
                                                                                
   Description                                                                  
     l     E      TYP  RCUT    TYP  RCUT                                        
     0   .000     23  2.100                                                     
     0   .000     23  2.100                                                     
     1   .000     23  2.100                                                     
     1   .000     23  2.100                                                     
     2   .000     23  2.100                                                     
     3  -.100      7  2.100                                                     
  local pseudopotential read in
  partial core-charges read in
  atomic valenz-charges read in
  non local Contribution for L=           0  read in
    real space projection operators read in
  non local Contribution for L=           0  read in
    real space projection operators read in
  non local Contribution for L=           1  read in
    real space projection operators read in
  non local Contribution for L=           1  read in
    real space projection operators read in
  non local Contribution for L=           2  read in
    real space projection operators read in
    PAW grid and wavefunctions read in

   number of l-projection  operators is LMAX  =           5
   number of lm-projection operators is LMMAX =          13

 PAW_PBE Mn 06Sep2000                   :
 energy of atom  1       EATOM= -416.8732
 kinetic energy error for atom=    0.0239 (will be added to EATOM!!)
 PAW_PBE As 06Sep2000                   :
 energy of atom  2       EATOM= -170.0753
 kinetic energy error for atom=    0.0021 (will be added to EATOM!!)


 POSCAR: For VASP. System=    MnAs_hex           
  positions in direct lattice
  No initial velocities read in
 exchange correlation table for  LEXCH =        8
   RHO(1)=    0.500       N(1)  =     2000
   RHO(2)=  100.500       N(2)  =     4000



--------------------------------------------------------------------------------------------------------


 ion  position               nearest neighbor table
   1  0.667  0.667  0.000-  56 2.53  55 2.53  46 2.53  49 2.53  48 2.53  61 2.53  19 2.75  28 2.75

   2  0.000  0.667  0.000-  56 2.53  46 2.53  57 2.53  47 2.53  50 2.53  62 2.53  20 2.75  29 2.75

   3  0.333  0.667  0.000-  57 2.53  47 2.53  51 2.53  55 2.53  48 2.53  63 2.53  21 2.75  30 2.75

   4  0.667  0.000  0.000-  49 2.53  59 2.53  58 2.53  52 2.53  55 2.53  51 2.53  22 2.75  31 2.75

   5  0.027  0.000  0.000-  50 2.32  60 2.32  56 2.54  53 2.54  59 2.75  49 2.75  23 2.77  32 2.77

   6  0.333  0.000  0.000-  60 2.53  50 2.53  51 2.53  57 2.53  54 2.53  58 2.53  24 2.75  33 2.75

   7  0.667  0.333  0.000-  52 2.53  62 2.53  58 2.53  54 2.53  61 2.53  46 2.53  25 2.75  34 2.75

   8  0.000  0.333  0.000-  53 2.53  52 2.53  63 2.53  62 2.53  59 2.53  47 2.53  26 2.75  35 2.75

   9  0.333  0.333  0.000-  53 2.53  54 2.53  63 2.53  60 2.53  61 2.53  48 2.53  27 2.75  36 2.75

  10  0.667  0.667  0.500-  65 2.53  64 2.53  37 2.53  40 2.53  39 2.53  70 2.53  19 2.75  28 2.75

  11  0.000  0.667  0.500-  65 2.53  37 2.53  66 2.53  38 2.53  41 2.53  71 2.53  20 2.75  29 2.75

  12  0.333  0.667  0.500-  66 2.53  38 2.53  42 2.53  64 2.53  39 2.53  72 2.53  21 2.75  30 2.75

  13  0.667  0.000  0.500-  40 2.53  68 2.53  67 2.53  43 2.53  64 2.53  42 2.53  22 2.75  31 2.75

  14  0.000  0.000  0.500-  41 2.53  68 2.53  40 2.53  69 2.53  44 2.53  65 2.53  23 2.75  32 2.75

  15  0.333  0.000  0.500-  69 2.53  41 2.53  42 2.53  66 2.53  45 2.53  67 2.53  24 2.75  33 2.75

  16  0.667  0.333  0.500-  43 2.53  71 2.53  67 2.53  45 2.53  70 2.53  37 2.53  25 2.75  34 2.75

  17  0.000  0.333  0.500-  44 2.53  43 2.53  72 2.53  71 2.53  68 2.53  38 2.53  26 2.75  35 2.75

  18  0.333  0.333  0.500-  44 2.53  45 2.53  72 2.53  69 2.53  70 2.53  39 2.53  27 2.75  36 2.75

  19  0.667  0.667  0.750-  56 2.53  55 2.53  37 2.53  40 2.53  39 2.53  61 2.53   1 2.75  10 2.75

  20  0.000  0.667  0.750-  56 2.53  37 2.53  57 2.53  38 2.53  41 2.53  62 2.53   2 2.75  11 2.75

  21  0.333  0.667  0.750-  57 2.53  38 2.53  42 2.53  55 2.53  39 2.53  63 2.53   3 2.75  12 2.75

  22  0.667  0.000  0.750-  40 2.53  59 2.53  58 2.53  43 2.53  55 2.53  42 2.53   4 2.75  13 2.75

  23  0.000  0.000  0.750-  41 2.53  59 2.53  40 2.53  60 2.53  44 2.53  56 2.53  14 2.75   5 2.77

  24  0.333  0.000  0.750-  60 2.53  41 2.53  42 2.53  57 2.53  45 2.53  58 2.53   6 2.75  15 2.75

  25  0.667  0.333  0.750-  43 2.53  62 2.53  58 2.53  45 2.53  61 2.53  37 2.53   7 2.75  16 2.75

  26  0.000  0.333  0.750-  44 2.53  43 2.53  63 2.53  62 2.53  59 2.53  38 2.53   8 2.75  17 2.75

  27  0.333  0.333  0.750-  44 2.53  45 2.53  63 2.53  60 2.53  61 2.53  39 2.53   9 2.75  18 2.75

  28  0.667  0.667  0.250-  65 2.53  64 2.53  46 2.53  49 2.53  48 2.53  70 2.53   1 2.75  10 2.75

  29  0.000  0.667  0.250-  65 2.53  46 2.53  66 2.53  47 2.53  50 2.53  71 2.53   2 2.75  11 2.75

  30  0.333  0.667  0.250-  66 2.53  47 2.53  51 2.53  64 2.53  48 2.53  72 2.53   3 2.75  12 2.75

  31  0.667  0.000  0.250-  49 2.53  68 2.53  67 2.53  52 2.53  64 2.53  51 2.53   4 2.75  13 2.75

  32  0.000  0.000  0.250-  50 2.53  68 2.53  49 2.53  69 2.53  53 2.53  65 2.53  14 2.75   5 2.77

  33  0.333  0.000  0.250-  69 2.53  50 2.53  51 2.53  66 2.53  54 2.53  67 2.53   6 2.75  15 2.75

  34  0.667  0.333  0.250-  52 2.53  71 2.53  67 2.53  54 2.53  70 2.53  46 2.53   7 2.75  16 2.75

  35  0.000  0.333  0.250-  53 2.53  52 2.53  72 2.53  71 2.53  68 2.53  47 2.53   8 2.75  17 2.75

  36  0.333  0.333  0.250-  53 2.53  54 2.53  72 2.53  69 2.53  70 2.53  48 2.53   9 2.75  18 2.75

  37  0.778  0.556  0.625-  11 2.53  20 2.53  19 2.53  10 2.53  16 2.53  25 2.53
  38  0.111  0.556  0.625-  12 2.53  21 2.53  20 2.53  11 2.53  17 2.53  26 2.53
  39  0.444  0.556  0.625-  10 2.53  19 2.53  12 2.53  21 2.53  18 2.53  27 2.53
  40  0.778  0.889  0.625-  13 2.53  22 2.53  14 2.53  23 2.53  10 2.53  19 2.53
  41  0.111  0.889  0.625-  14 2.53  23 2.53  15 2.53  24 2.53  11 2.53  20 2.53
  42  0.444  0.889  0.625-  15 2.53  24 2.53  21 2.53  12 2.53  22 2.53  13 2.53
  43  0.778  0.222  0.625-  16 2.53  25 2.53  17 2.53  26 2.53  13 2.53  22 2.53
  44  0.111  0.222  0.625-  17 2.53  26 2.53  18 2.53  27 2.53  14 2.53  23 2.53
  45  0.444  0.222  0.625-  18 2.53  27 2.53  24 2.53  15 2.53  25 2.53  16 2.53
  46  0.778  0.556  0.125-   2 2.53  29 2.53  28 2.53   1 2.53   7 2.53  34 2.53
  47  0.111  0.556  0.125-   3 2.53  30 2.53  29 2.53   2 2.53   8 2.53  35 2.53
  48  0.444  0.556  0.125-   1 2.53  28 2.53   3 2.53  30 2.53   9 2.53  36 2.53
  49  0.778  0.889  0.125-   4 2.53  31 2.53  32 2.53   1 2.53  28 2.53   5 2.75
  50  0.111  0.889  0.125-   5 2.32  32 2.53   6 2.53  33 2.53   2 2.53  29 2.53
  51  0.444  0.889  0.125-   6 2.53  33 2.53  30 2.53   3 2.53  31 2.53   4 2.53
  52  0.778  0.222  0.125-   7 2.53  34 2.53   8 2.53  35 2.53   4 2.53  31 2.53
  53  0.111  0.222  0.125-   8 2.53  35 2.53   9 2.53  36 2.53  32 2.53   5 2.54
  54  0.444  0.222  0.125-   9 2.53  36 2.53  33 2.53   6 2.53  34 2.53   7 2.53
  55  0.556  0.778  0.875-   1 2.53  19 2.53   4 2.53  22 2.53  21 2.53   3 2.53
  56  0.889  0.778  0.875-   2 2.53  20 2.53  19 2.53   1 2.53  23 2.53   5 2.54
  57  0.222  0.778  0.875-   3 2.53  21 2.53  20 2.53   2 2.53   6 2.53  24 2.53
  58  0.556  0.111  0.875-   4 2.53  22 2.53   7 2.53  25 2.53  24 2.53   6 2.53
  59  0.889  0.111  0.875-  23 2.53  22 2.53   4 2.53   8 2.53  26 2.53   5 2.75
  60  0.222  0.111  0.875-   5 2.32   6 2.53  24 2.53  23 2.53   9 2.53  27 2.53
  61  0.556  0.444  0.875-   9 2.53  27 2.53  25 2.53   7 2.53   1 2.53  19 2.53
  62  0.889  0.444  0.875-   7 2.53  25 2.53   8 2.53  26 2.53   2 2.53  20 2.53
  63  0.222  0.444  0.875-   8 2.53  26 2.53   9 2.53  27 2.53   3 2.53  21 2.53
  64  0.556  0.778  0.375-  10 2.53  28 2.53  13 2.53  31 2.53  30 2.53  12 2.53
  65  0.889  0.778  0.375-  11 2.53  29 2.53  28 2.53  10 2.53  14 2.53  32 2.53
  66  0.222  0.778  0.375-  12 2.53  30 2.53  29 2.53  11 2.53  15 2.53  33 2.53
  67  0.556  0.111  0.375-  13 2.53  31 2.53  16 2.53  34 2.53  33 2.53  15 2.53
  68  0.889  0.111  0.375-  14 2.53  32 2.53  31 2.53  13 2.53  17 2.53  35 2.53
  69  0.222  0.111  0.375-  15 2.53  33 2.53  32 2.53  14 2.53  18 2.53  36 2.53
  70  0.556  0.444  0.375-  18 2.53  36 2.53  34 2.53  16 2.53  10 2.53  28 2.53
  71  0.889  0.444  0.375-  16 2.53  34 2.53  17 2.53  35 2.53  11 2.53  29 2.53
  72  0.222  0.444  0.375-  17 2.53  35 2.53  18 2.53  36 2.53  12 2.53  30 2.53

  LATTYP: Found a hexagonal cell.
 ALAT       =    11.0002171438
 C/A-ratio  =     1.0013686964
  
  Lattice vectors:
  
 A1 = (  11.0002171438,   0.0000000000,   0.0000000000)
 A2 = (  -5.5001085719,   9.5264674936,   0.0000000000)
 A3 = (   0.0000000000,   0.0000000000,  11.0152731015)


Analysis of symmetry for initial positions (statically):
=====================================================================
 Subroutine PRICEL returns:
 Original cell was already a primitive cell.
 

 Routine SETGRP: Setting up the symmetry group for a 
 hexagonal supercell.


 Subroutine GETGRP returns: Found  2 space group operations
 (whereof  2 operations were pure point group operations)
 out of a pool of 24 trial point group operations.


The static configuration has the point symmetry C_2 .


Analysis of symmetry for dynamics (positions and initial velocities):
=====================================================================
 Subroutine PRICEL returns:
 Original cell was already a primitive cell.
 

 Routine SETGRP: Setting up the symmetry group for a 
 hexagonal supercell.


 Subroutine GETGRP returns: Found  2 space group operations
 (whereof  2 operations were pure point group operations)
 out of a pool of 24 trial point group operations.


The dynamic configuration has the point symmetry C_2 .


Analysis of structural, dynamic, and magnetic symmetry:
=====================================================================
 Subroutine PRICEL returns:
 Original cell was already a primitive cell.
 

 Routine SETGRP: Setting up the symmetry group for a 
 hexagonal supercell.


 Subroutine GETGRP returns: Found  2 space group operations
 (whereof  2 operations were pure point group operations)
 out of a pool of 24 trial point group operations.


The magnetic configuration has the point symmetry C_2 .


 Subroutine INISYM returns: Found  2 space group operations
 (whereof  2 operations are pure point group operations),
 and found     1 'primitive' translations



 KPOINTS: Automatic mesh                          

Automatic generation of k-mesh.
Space group operators:
 irot       det(A)        alpha          n_x          n_y          n_z        tau_x        tau_y        tau_z
    1     1.000000     0.000000     1.000000     0.000000     0.000000     0.000000     0.000000     0.000000
    2     1.000000   180.000000     1.000000     0.000000     0.000000     0.000000     0.000000     0.000000
 
 Subroutine IBZKPT returns following result:
 ===========================================
 
 Found     24 irreducible k-points:
 
 Following reciprocal coordinates:
            Coordinates               Weight
  0.000000  0.000000  0.000000      1.000000
  0.250000  0.000000  0.000000      4.000000
  0.500000  0.000000  0.000000      2.000000
  0.000000  0.250000  0.000000      2.000000
  0.250000  0.250000  0.000000      4.000000
  0.500000  0.250000  0.000000      2.000000
  0.000000  0.500000  0.000000      1.000000
  0.000000  0.000000  0.250000      2.000000
  0.250000  0.000000  0.250000      4.000000
  0.500000  0.000000  0.250000      4.000000
 -0.250000  0.000000  0.250000      4.000000
  0.000000  0.250000  0.250000      2.000000
  0.250000  0.250000  0.250000      4.000000
  0.500000  0.250000  0.250000      4.000000
  0.000000  0.500000  0.250000      2.000000
  0.250000  0.500000  0.250000      4.000000
  0.000000 -0.250000  0.250000      2.000000
  0.000000  0.000000  0.500000      1.000000
  0.250000  0.000000  0.500000      4.000000
  0.500000  0.000000  0.500000      2.000000
  0.000000  0.250000  0.500000      2.000000
  0.250000  0.250000  0.500000      4.000000
  0.500000  0.250000  0.500000      2.000000
  0.000000  0.500000  0.500000      1.000000
 
 Following cartesian coordinates:
            Coordinates               Weight
  0.000000  0.000000  0.000000      1.000000
  0.022727  0.013121  0.000000      4.000000
  0.045454  0.026243  0.000000      2.000000
  0.000000  0.026243  0.000000      2.000000
  0.022727  0.039364  0.000000      4.000000
  0.045454  0.052485  0.000000      2.000000
  0.000000  0.052485  0.000000      1.000000
  0.000000  0.000000  0.022696      2.000000
  0.022727  0.013121  0.022696      4.000000
  0.045454  0.026243  0.022696      4.000000
 -0.022727 -0.013121  0.022696      4.000000
  0.000000  0.026243  0.022696      2.000000
  0.022727  0.039364  0.022696      4.000000
  0.045454  0.052485  0.022696      4.000000
  0.000000  0.052485  0.022696      2.000000
  0.022727  0.065607  0.022696      4.000000
  0.000000 -0.026243  0.022696      2.000000
  0.000000  0.000000  0.045392      1.000000
  0.022727  0.013121  0.045392      4.000000
  0.045454  0.026243  0.045392      2.000000
  0.000000  0.026243  0.045392      2.000000
  0.022727  0.039364  0.045392      4.000000
  0.045454  0.052485  0.045392      2.000000
  0.000000  0.052485  0.045392      1.000000
 


--------------------------------------------------------------------------------------------------------




 Dimension of arrays:
   k-points           NKPTS =     24   k-points in BZ     NKDIM =     24   number of bands    NBANDS=    300
   number of dos      NEDOS =    301   number of ions     NIONS =     72
   non local maximal  LDIM  =      6   non local SUM 2l+1 LMDIM =     18
   total plane-waves  NPLWV = 343000
   max r-space proj   IRMAX =   6047   max aug-charges    IRDMAX=  98554
   dimension x,y,z NGX =    70 NGY =   70 NGZ =   70
   dimension x,y,z NGXF=   140 NGYF=  140 NGZF=  140
   support grid    NGXF=   280 NGYF=  280 NGZF=  280
   ions per type =              36  36
 NGX,Y,Z   is equivalent  to a cutoff of  10.58, 10.58, 10.56 a.u.
 NGXF,Y,Z  is equivalent  to a cutoff of  21.16, 21.16, 21.13 a.u.


 I would recommend the setting:
   dimension x,y,z NGX =    64 NGY =   64 NGZ =   64
 SYSTEM =  MnAs hex                                
 POSCAR =  For VASP. System=    MnAs_hex           

 Startparameter for this run:
   NWRITE =      2    write-flag & timer
   PREC   = accura    normal or accurate (medium, high low for compatibility)
   ISTART =      0    job   : 0-new  1-cont  2-samecut
   ICHARG =      2    charge: 1-file 2-atom 10-const
   ISPIN  =      2    spin polarized calculation?
   LNONCOLLINEAR =      F non collinear calculations
   LSORBIT =      F    spin-orbit coupling
   INIWAV =      1    electr: 0-lowe 1-rand  2-diag
   LASPH  =      F    aspherical Exc in radial PAW
   METAGGA=      F    non-selfconsistent MetaGGA calc.

 Electronic Relaxation 1
   ENCUT  =  320.0 eV  23.52 Ry    4.85 a.u.  16.04 16.04 16.07*2*pi/ulx,y,z
   ENINI  =  320.0     initial cutoff
   ENAUG  =  500.7 eV  augmentation charge cutoff
   NELM   =    200;   NELMIN=  2; NELMDL=  0     # of ELM steps 
   EDIFF  = 0.1E-06   stopping-criterion for ELM
   LREAL  =      T    real-space projection
   NLSPLINE    = F    spline interpolate recip. space projectors
   LCOMPAT=      F    compatible to vasp.4.4
   GGA_COMPAT  = T    GGA compatible to vasp.4.4-vasp.4.6
   LMAXPAW     = -100 max onsite density
   LMAXMIX     =    2 max onsite mixed and CHGCAR
   VOSKOWN=      0    Vosko Wilk Nusair interpolation
   ROPT   =    0.00000   0.00000
 Ionic relaxation
   EDIFFG = 0.1E-05   stopping-criterion for IOM
   NSW    =      0    number of steps for IOM
   NBLOCK =      1;   KBLOCK =      1    inner block; outer block 
   IBRION =     -1    ionic relax: 0-MD 1-quasi-New 2-CG
   NFREE  =      1    steps in history (QN), initial steepest desc. (CG)
   ISIF   =      6    stress and relaxation
   IWAVPR =     10    prediction:  0-non 1-charg 2-wave 3-comb
   ISYM   =      2    0-nonsym 1-usesym 2-fastsym
   LCORR  =      T    Harris-Foulkes like correction to forces

   POTIM  = 0.5000    time-step for ionic-motion
   TEIN   =    0.0    initial temperature
   TEBEG  =    0.0;   TEEND  =   0.0 temperature during run
   SMASS  =  -3.00    Nose mass-parameter (am)
   estimated Nose-frequenzy (Omega)   =  0.10E-29 period in steps =****** mass=  -0.277E-26a.u.
   SCALEE = 1.0000    scale energy and forces
   NPACO  =    256;   APACO  = 16.0  distance and # of slots for P.C.
   PSTRESS=    0.0 pullay stress

  Mass of Ions in am
   POMASS =  54.94 74.92
  Ionic Valenz
   ZVAL   =   7.00  5.00
  Atomic Wigner-Seitz radii
   RWIGS  =  -1.00 -1.00
  virtual crystal weights 
   VCA    =   1.00  1.00
   NELECT =     432.0000    total number of electrons
   NUPDOWN=      -1.0000    fix difference up-down

 DOS related values:
   EMIN   =  10.00;   EMAX   =-10.00  energy-range for DOS
   EFERMI =   0.00
   ISMEAR =     1;   SIGMA  =   0.20  broadening in eV -4-tet -1-fermi 0-gaus

 Electronic relaxation 2 (details)
   IALGO  =     38    algorithm
   LDIAG  =      T    sub-space diagonalisation (order eigenvalues)
   LSUBROT=      F    optimize rotation matrix (better conditioning)
   TURBO    =      0    0=normal 1=particle mesh
   IRESTART =      0    0=no restart 2=restart with 2 vectors
   NREBOOT  =      0    no. of reboots
   NMIN     =      0    reboot dimension
   EREF     =   0.00    reference energy to select bands
   IMIX   =      4    mixing-type and parameters
     AMIX     =   0.40;   BMIX     =  1.00
     AMIX_MAG =   1.60;   BMIX_MAG =  1.00
     AMIN     =   0.10
     WC   =   100.;   INIMIX=   1;  MIXPRE=   1;  MAXMIX= -45

 Intra band minimization:
   WEIMIN = 0.0000     energy-eigenvalue tresh-hold
   EBREAK =  0.83E-10  absolut break condition
   DEPER  =   0.30     relativ break condition  

   TIME   =   0.40     timestep for ELM

  volume/ion in A,a.u.               =      16.03       108.19
  Fermi-wavevector in a.u.,A,eV,Ry     =   1.179759  2.229421 18.937012  1.391831
  Thomas-Fermi vector in A             =   2.316064

 Write flags
   LWAVE  =      F    write WAVECAR
   LCHARG =      F    write CHGCAR
   LVTOT  =      F    write LOCPOT, total local potential
   LVHAR  =      F    write LOCPOT, Hartree potential only
   LELF   =      F    write electronic localiz. function (ELF)
   LORBIT =      0    0 simple, 1 ext, 2 COOP (PROOUT)


 Dipole corrections
   LMONO  =      F    monopole corrections only (constant potential shift)
   LDIPOL =      F    correct potential (dipole corrections)
   IDIPOL =      0    1-x, 2-y, 3-z, 4-all directions 
   EPSILON=  1.0000000 bulk dielectric constant

 Exchange correlation treatment:
   GGA     =    --    GGA type
   LEXCH   =     8    internal setting for exchange type
   VOSKOWN=      0    Vosko Wilk Nusair interpolation
   LHFCALC =     F    Hartree Fock is set to
   LHFONE  =     F    Hartree Fock one center treatment
   AEXX    =    0.0000 exact exchange contribution

 Linear response parameters
   LEPSILON=     F    determine dielectric tensor
   LRPA    =     F    only Hartree local field effects (RPA)
   LNABLA  =     F    use nabla operator in PAW spheres
   LVEL    =     F    velocity operator in full k-point grid
   LINTERFAST=   F  fast interpolation
   KINTER  =     0    interpolate to denser k-point grid
   CSHIFT  =0.1000    complex shift for real part using Kramers Kronig
   OMEGAMAX=  -1.0    maximum frequency
   DEG_THRESHOLD= 0.2000000E-02 threshold for treating states as degnerate
   RTIME   =    0.100 relaxation time in fs

 Orbital magnetization related:
   ORBITALMAG=     F  switch on orbital magnetization
   LCHIMAG   =     F  perturbation theory with respect to B field
   DQ        =  0.001000  dq finite difference perturbation B field



--------------------------------------------------------------------------------------------------------


 Static calculation
 charge density and potential will be updated during run
 spin polarized calculation
 Variant of blocked Davidson
 Davidson routine will perform the subspace rotation
 perform sub-space diagonalisation
    after iterative eigenvector-optimisation
 modified Broyden-mixing scheme, WC =      100.0
 initial mixing is a Kerker type mixing with AMIX =  0.4000 and BMIX =      1.0000
 Hartree-type preconditioning will be used
 using additional bands           84
 real space projection scheme for non local part
 use partial core corrections
 calculate Harris-corrections to forces   (improved forces if not selfconsistent)
 use gradient corrections 
 use of overlap-Matrix (Vanderbilt PP)
 Methfessel and Paxton  Order N= 1 SIGMA  =   0.20


--------------------------------------------------------------------------------------------------------


  energy-cutoff  :      320.00
  volume of cell :     1154.33
      direct lattice vectors                 reciprocal lattice vectors
    11.000217144  0.000000000  0.000000000     0.090907296  0.052485352 -0.000000000
    -5.500108572  9.526467494  0.000000000     0.000000000  0.104970704  0.000000000
     0.000000000  0.000000000 11.015273102     0.000000000 -0.000000000  0.090783042

  length of vectors
    11.000217144 11.000217144 11.015273102     0.104970704  0.104970704  0.090783042



 k-points in units of 2pi/SCALE and weight: Automatic mesh                          
   0.00000000  0.00000000  0.00000000       0.016
   0.02272682  0.01312134  0.00000000       0.062
   0.04545365  0.02624268  0.00000000       0.031
   0.00000000  0.02624268  0.00000000       0.031
   0.02272682  0.03936401  0.00000000       0.062
   0.04545365  0.05248535  0.00000000       0.031
   0.00000000  0.05248535  0.00000000       0.016
   0.00000000  0.00000000  0.02269576       0.031
   0.02272682  0.01312134  0.02269576       0.062
   0.04545365  0.02624268  0.02269576       0.062
  -0.02272682 -0.01312134  0.02269576       0.062
   0.00000000  0.02624268  0.02269576       0.031
   0.02272682  0.03936401  0.02269576       0.062
   0.04545365  0.05248535  0.02269576       0.062
   0.00000000  0.05248535  0.02269576       0.031
   0.02272682  0.06560669  0.02269576       0.062
   0.00000000 -0.02624268  0.02269576       0.031
   0.00000000  0.00000000  0.04539152       0.016
   0.02272682  0.01312134  0.04539152       0.062
   0.04545365  0.02624268  0.04539152       0.031
   0.00000000  0.02624268  0.04539152       0.031
   0.02272682  0.03936401  0.04539152       0.062
   0.04545365  0.05248535  0.04539152       0.031
   0.00000000  0.05248535  0.04539152       0.016

 k-points in reciprocal lattice and weights: Automatic mesh                          
   0.00000000  0.00000000  0.00000000       0.016
   0.25000000  0.00000000  0.00000000       0.062
   0.50000000  0.00000000  0.00000000       0.031
   0.00000000  0.25000000  0.00000000       0.031
   0.25000000  0.25000000  0.00000000       0.062
   0.50000000  0.25000000  0.00000000       0.031
   0.00000000  0.50000000  0.00000000       0.016
   0.00000000  0.00000000  0.25000000       0.031
   0.25000000  0.00000000  0.25000000       0.062
   0.50000000  0.00000000  0.25000000       0.062
  -0.25000000  0.00000000  0.25000000       0.062
   0.00000000  0.25000000  0.25000000       0.031
   0.25000000  0.25000000  0.25000000       0.062
   0.50000000  0.25000000  0.25000000       0.062
   0.00000000  0.50000000  0.25000000       0.031
   0.25000000  0.50000000  0.25000000       0.062
   0.00000000 -0.25000000  0.25000000       0.031
   0.00000000  0.00000000  0.50000000       0.016
   0.25000000  0.00000000  0.50000000       0.062
   0.50000000  0.00000000  0.50000000       0.031
   0.00000000  0.25000000  0.50000000       0.031
   0.25000000  0.25000000  0.50000000       0.062
   0.50000000  0.25000000  0.50000000       0.031
   0.00000000  0.50000000  0.50000000       0.016

 position of ions in fractional coordinates (direct lattice) 
   0.66666667  0.66666667  0.00000000
   0.00000000  0.66666667  0.00000000
   0.33333333  0.66666667  0.00000000
   0.66666667  0.00000000  0.00000000
   0.02700000  0.00000000  0.00000000
   0.33333333  0.00000000  0.00000000
   0.66666667  0.33333333  0.00000000
   0.00000000  0.33333333  0.00000000
   0.33333333  0.33333333  0.00000000
   0.66666667  0.66666667  0.50000000
   0.00000000  0.66666667  0.50000000
   0.33333333  0.66666667  0.50000000
   0.66666667  0.00000000  0.50000000
   0.00000000  0.00000000  0.50000000
   0.33333333  0.00000000  0.50000000
   0.66666667  0.33333333  0.50000000
   0.00000000  0.33333333  0.50000000
   0.33333333  0.33333333  0.50000000
   0.66666667  0.66666667  0.75000000
   0.00000000  0.66666667  0.75000000
   0.33333333  0.66666667  0.75000000
   0.66666667  0.00000000  0.75000000
   0.00000000  0.00000000  0.75000000
   0.33333333  0.00000000  0.75000000
   0.66666667  0.33333333  0.75000000
   0.00000000  0.33333333  0.75000000
   0.33333333  0.33333333  0.75000000
   0.66666667  0.66666667  0.25000000
   0.00000000  0.66666667  0.25000000
   0.33333333  0.66666667  0.25000000
   0.66666667  0.00000000  0.25000000
   0.00000000  0.00000000  0.25000000
   0.33333333  0.00000000  0.25000000
   0.66666667  0.33333333  0.25000000
   0.00000000  0.33333333  0.25000000
   0.33333333  0.33333333  0.25000000
   0.77777778  0.55555556  0.62500000
   0.11111111  0.55555556  0.62500000
   0.44444444  0.55555556  0.62500000
   0.77777778  0.88888889  0.62500000
   0.11111111  0.88888889  0.62500000
   0.44444444  0.88888889  0.62500000
   0.77777778  0.22222222  0.62500000
   0.11111111  0.22222222  0.62500000
   0.44444444  0.22222222  0.62500000
   0.77777778  0.55555556  0.12500000
   0.11111111  0.55555556  0.12500000
   0.44444444  0.55555556  0.12500000
   0.77777778  0.88888889  0.12500000
   0.11111111  0.88888889  0.12500000
   0.44444444  0.88888889  0.12500000
   0.77777778  0.22222222  0.12500000
   0.11111111  0.22222222  0.12500000
   0.44444444  0.22222222  0.12500000
   0.55555556  0.77777778  0.87500000
   0.88888889  0.77777778  0.87500000
   0.22222222  0.77777778  0.87500000
   0.55555556  0.11111111  0.87500000
   0.88888889  0.11111111  0.87500000
   0.22222222  0.11111111  0.87500000
   0.55555556  0.44444444  0.87500000
   0.88888889  0.44444444  0.87500000
   0.22222222  0.44444444  0.87500000
   0.55555556  0.77777778  0.37500000
   0.88888889  0.77777778  0.37500000
   0.22222222  0.77777778  0.37500000
   0.55555556  0.11111111  0.37500000
   0.88888889  0.11111111  0.37500000
   0.22222222  0.11111111  0.37500000
   0.55555556  0.44444444  0.37500000
   0.88888889  0.44444444  0.37500000
   0.22222222  0.44444444  0.37500000

 position of ions in cartesian coordinates  (Angst):
   3.66673905  6.35097833  0.00000000
  -3.66673905  6.35097833  0.00000000
  -0.00000000  6.35097833  0.00000000
   7.33347810  0.00000000  0.00000000
   0.29700586  0.00000000  0.00000000
   3.66673905  0.00000000  0.00000000
   5.50010857  3.17548916  0.00000000
  -1.83336952  3.17548916  0.00000000
   1.83336952  3.17548916  0.00000000
   3.66673905  6.35097833  5.50763655
  -3.66673905  6.35097833  5.50763655
  -0.00000000  6.35097833  5.50763655
   7.33347810  0.00000000  5.50763655
   0.00000000  0.00000000  5.50763655
   3.66673905  0.00000000  5.50763655
   5.50010857  3.17548916  5.50763655
  -1.83336952  3.17548916  5.50763655
   1.83336952  3.17548916  5.50763655
   3.66673905  6.35097833  8.26145483
  -3.66673905  6.35097833  8.26145483
  -0.00000000  6.35097833  8.26145483
   7.33347810  0.00000000  8.26145483
   0.00000000  0.00000000  8.26145483
   3.66673905  0.00000000  8.26145483
   5.50010857  3.17548916  8.26145483
  -1.83336952  3.17548916  8.26145483
   1.83336952  3.17548916  8.26145483
   3.66673905  6.35097833  2.75381828
  -3.66673905  6.35097833  2.75381828
  -0.00000000  6.35097833  2.75381828
   7.33347810  0.00000000  2.75381828
   0.00000000  0.00000000  2.75381828
   3.66673905  0.00000000  2.75381828
   5.50010857  3.17548916  2.75381828
  -1.83336952  3.17548916  2.75381828
   1.83336952  3.17548916  2.75381828
   5.50010857  5.29248194  6.88454569
  -1.83336952  5.29248194  6.88454569
   1.83336952  5.29248194  6.88454569
   3.66673905  8.46797111  6.88454569
  -3.66673905  8.46797111  6.88454569
  -0.00000000  8.46797111  6.88454569
   7.33347810  2.11699278  6.88454569
  -0.00000000  2.11699278  6.88454569
   3.66673905  2.11699278  6.88454569
   5.50010857  5.29248194  1.37690914
  -1.83336952  5.29248194  1.37690914
   1.83336952  5.29248194  1.37690914
   3.66673905  8.46797111  1.37690914
  -3.66673905  8.46797111  1.37690914
  -0.00000000  8.46797111  1.37690914
   7.33347810  2.11699278  1.37690914
  -0.00000000  2.11699278  1.37690914
   3.66673905  2.11699278  1.37690914
   1.83336952  7.40947472  9.63836396
   5.50010857  7.40947472  9.63836396
  -1.83336952  7.40947472  9.63836396
   5.50010857  1.05849639  9.63836396
   9.16684762  1.05849639  9.63836396
   1.83336952  1.05849639  9.63836396
   3.66673905  4.23398555  9.63836396
   7.33347810  4.23398555  9.63836396
  -0.00000000  4.23398555  9.63836396
   1.83336952  7.40947472  4.13072741
   5.50010857  7.40947472  4.13072741
  -1.83336952  7.40947472  4.13072741
   5.50010857  1.05849639  4.13072741
   9.16684762  1.05849639  4.13072741
   1.83336952  1.05849639  4.13072741
   3.66673905  4.23398555  4.13072741
   7.33347810  4.23398555  4.13072741
  -0.00000000  4.23398555  4.13072741



--------------------------------------------------------------------------------------------------------


 k-point  1 :   0.0000 0.0000 0.0000  plane waves:   14931
 k-point  2 :   0.2500 0.0000 0.0000  plane waves:   14982
 k-point  3 :   0.5000 0.0000 0.0000  plane waves:   15008
 k-point  4 :   0.0000 0.2500 0.0000  plane waves:   14982
 k-point  5 :   0.2500 0.2500 0.0000  plane waves:   14994
 k-point  6 :   0.5000 0.2500 0.0000  plane waves:   14994
 k-point  7 :   0.0000 0.5000 0.0000  plane waves:   15008
 k-point  8 :   0.0000 0.0000 0.2500  plane waves:   14990
 k-point  9 :   0.2500 0.0000 0.2500  plane waves:   15013
 k-point 10 :   0.5000 0.0000 0.2500  plane waves:   15002
 k-point 11 :  -0.2500 0.0000 0.2500  plane waves:   15013
 k-point 12 :   0.0000 0.2500 0.2500  plane waves:   15013
 k-point 13 :   0.2500 0.2500 0.2500  plane waves:   15003
 k-point 14 :   0.5000 0.2500 0.2500  plane waves:   15003
 k-point 15 :   0.0000 0.5000 0.2500  plane waves:   15002
 k-point 16 :   0.2500 0.5000 0.2500  plane waves:   15003
 k-point 17 :   0.0000-0.2500 0.2500  plane waves:   15013
 k-point 18 :   0.0000 0.0000 0.5000  plane waves:   14984
 k-point 19 :   0.2500 0.0000 0.5000  plane waves:   15008
 k-point 20 :   0.5000 0.0000 0.5000  plane waves:   15044
 k-point 21 :   0.0000 0.2500 0.5000  plane waves:   15008
 k-point 22 :   0.2500 0.2500 0.5000  plane waves:   15006
 k-point 23 :   0.5000 0.2500 0.5000  plane waves:   15006
 k-point 24 :   0.0000 0.5000 0.5000  plane waves:   15044

 maximum and minimum number of plane-waves per node :      3774     3707

 maximum number of plane-waves:     15044
 maximum index in each direction: 
   IXMAX=   16   IYMAX=   16   IZMAX=   16
   IXMIN=  -16   IYMIN=  -16   IZMIN=  -16

 NGX is ok and might be reduce to  66
 NGY is ok and might be reduce to  66
 NGZ is ok and might be reduce to  66

 real space projection operators:
  total allocation   :      41364.28 KBytes
  max/ min on nodes  :      10756.62       9934.91


 parallel 3D FFT for wavefunctions:
    minimum data exchange during FFTs selected (reduces bandwidth)
 parallel 3D FFT for charge:
    minimum data exchange during FFTs selected (reduces bandwidth)


 total amount of memory used by VASP on root node   334145. kBytes
========================================================================

   base      :      30000. kBytes
   nonlr-proj:      20526. kBytes
   fftplans  :      28296. kBytes
   grid      :      21369. kBytes
   one-center:        559. kBytes
   wavefun   :     233395. kBytes

     INWAV:  cpu time    0.0000: real time    0.0001
 Broyden mixing: mesh for mixing (old mesh)
   NGX = 33   NGY = 33   NGZ = 33
  (NGX  =140   NGY  =140   NGZ  =140)
  gives a total of  35937 points

 initial charge density was supplied:
 charge density of overlapping atoms calculated
 number of electron     432.0000000 magnetization      36.0000000
 keeping initial charge density in first step


--------------------------------------------------------------------------------------------------------


 Maximum index for non-local projection operator         1589
 Maximum index for augmentation-charges         6365 (set IRDMAX)


--------------------------------------------------------------------------------------------------------


 First call to EWALD:  gamma=   0.169
 Maximum number of real-space cells 3x 3x 3
 Maximum number of reciprocal cells 3x 3x 3

 FEWALD executed in parallel
    FEWALD:  cpu time    0.0120: real time    0.0134


----------------------------------------- Iteration    1(   1)  ---------------------------------------


    POTLOK:  cpu time    0.7920: real time    0.7941
    SETDIJ:  cpu time    0.8840: real time    0.8832
     EDDAV:  cpu time  424.0840: real time  426.4713
       DOS:  cpu time    0.0360: real time    0.0348
    --------------------------------------------
      LOOP:  cpu time  425.8040: real time  428.1985

 eigenvalue-minimisations  : 29112
 total energy-change (2. order) : 0.3244382E+04  (-0.1144338E+05)
 number of electron     432.0000000 magnetization      36.0000000
 augmentation part      432.0000000 magnetization      36.0000000

 Free energy of the ion-electron system (eV)
  ---------------------------------------------------
  alpha Z        PSCENC =      1700.89082154
  Ewald energy   TEWEN  =    -21117.43618611
  -Hartree energ DENC   =     -3906.76703934
  -exchange      EXHF   =         0.00000000
  -V(xc)+E(xc)   XCENC  =      -848.06928711
  PAW double counting   =     14295.91323732   -12980.49464661
  entropy T*S    EENTRO =        -0.00311430
  eigenvalues    EBANDS =      4971.13868621
  atomic energy  EATOM  =     21129.20924906
  Solvation  Ediel_sol  =         0.00000000
  ---------------------------------------------------
  free energy    TOTEN  =      3244.38172068 eV

  energy without entropy =     3244.38483498  energy(sigma->0) =     3244.38275878


--------------------------------------------------------------------------------------------------------




----------------------------------------- Iteration    1(   2)  ---------------------------------------


     EDDAV:  cpu time  410.9360: real time  413.3608
       DOS:  cpu time    0.0400: real time    0.0389
    --------------------------------------------
      LOOP:  cpu time  411.0000: real time  413.4372

 eigenvalue-minimisations  : 28800
 total energy-change (2. order) :-0.3329155E+04  (-0.3197647E+04)
 number of electron     432.0000000 magnetization      36.0000000
 augmentation part      432.0000000 magnetization      36.0000000

 Free energy of the ion-electron system (eV)
  ---------------------------------------------------
  alpha Z        PSCENC =      1700.89082154
  Ewald energy   TEWEN  =    -21117.43618611
  -Hartree energ DENC   =     -3906.76703934
  -exchange      EXHF   =         0.00000000
  -V(xc)+E(xc)   XCENC  =      -848.06928711
  PAW double counting   =     14295.91323732   -12980.49464661
  entropy T*S    EENTRO =        -0.00836151
  eigenvalues    EBANDS =      1641.98873889
  atomic energy  EATOM  =     21129.20924906
  Solvation  Ediel_sol  =         0.00000000
  ---------------------------------------------------
  free energy    TOTEN  =       -84.77347385 eV

  energy without entropy =      -84.76511234  energy(sigma->0) =      -84.77068668


--------------------------------------------------------------------------------------------------------




----------------------------------------- Iteration    1(   3)  ---------------------------------------


     EDDAV:  cpu time  568.9360: real time  572.4500
       DOS:  cpu time    0.0400: real time    0.0412
    --------------------------------------------
      LOOP:  cpu time  568.9880: real time  572.5115

 eigenvalue-minimisations  : 42464
 total energy-change (2. order) :-0.4174099E+03  (-0.3741433E+03)
 number of electron     432.0000000 magnetization      36.0000000
 augmentation part      432.0000000 magnetization      36.0000000

 Free energy of the ion-electron system (eV)
  ---------------------------------------------------
  alpha Z        PSCENC =      1700.89082154
  Ewald energy   TEWEN  =    -21117.43618611
  -Hartree energ DENC   =     -3906.76703934
  -exchange      EXHF   =         0.00000000
  -V(xc)+E(xc)   XCENC  =      -848.06928711
  PAW double counting   =     14295.91323732   -12980.49464661
  entropy T*S    EENTRO =        -0.06955326
  eigenvalues    EBANDS =      1224.64006711
  atomic energy  EATOM  =     21129.20924906
  Solvation  Ediel_sol  =         0.00000000
  ---------------------------------------------------
  free energy    TOTEN  =      -502.18333739 eV

  energy without entropy =     -502.11378412  energy(sigma->0) =     -502.16015296


--------------------------------------------------------------------------------------------------------




----------------------------------------- Iteration    1(   4)  ---------------------------------------


     EDDAV:  cpu time  844.0600: real time  846.9384
       DOS:  cpu time    0.0440: real time    0.0422
    --------------------------------------------
      LOOP:  cpu time  844.1280: real time  847.0265

 eigenvalue-minimisations  : 46432
 total energy-change (2. order) :-0.4176194E+02  (-0.3701806E+02)
 number of electron     432.0000000 magnetization      36.0000000
 augmentation part      432.0000000 magnetization      36.0000000

 Free energy of the ion-electron system (eV)
  ---------------------------------------------------
  alpha Z        PSCENC =      1700.89082154
  Ewald energy   TEWEN  =    -21117.43618611
  -Hartree energ DENC   =     -3906.76703934
  -exchange      EXHF   =         0.00000000
  -V(xc)+E(xc)   XCENC  =      -848.06928711
  PAW double counting   =     14295.91323732   -12980.49464661
  entropy T*S    EENTRO =        -0.05613271
  eigenvalues    EBANDS =      1182.86470682
  atomic energy  EATOM  =     21129.20924906
  Solvation  Ediel_sol  =         0.00000000
  ---------------------------------------------------
  free energy    TOTEN  =      -543.94527712 eV

  energy without entropy =     -543.88914441  energy(sigma->0) =     -543.92656622


--------------------------------------------------------------------------------------------------------




----------------------------------------- Iteration    1(   5)  ---------------------------------------


     EDDAV:  cpu time  819.4360: real time  820.3866
       DOS:  cpu time    0.0400: real time    0.0415
    CHARGE:  cpu time   27.1640: real time   27.1905
    MIXING:  cpu time    0.0560: real time    0.0544
    --------------------------------------------
      LOOP:  cpu time  846.7440: real time  847.7414

 eigenvalue-minimisations  : 49016
 total energy-change (2. order) :-0.2853582E+01  (-0.2693632E+01)
 number of electron     432.0000001 magnetization      39.7733486
 augmentation part       60.2293857 magnetization      21.5538847

 Broyden mixing:
  rms(total) = 0.61264E+01    rms(broyden)= 0.61248E+01
  rms(prec ) = 0.79560E+01
  weight for this iteration     100.00

 Free energy of the ion-electron system (eV)
  ---------------------------------------------------
  alpha Z        PSCENC =      1700.89082154
  Ewald energy   TEWEN  =    -21117.43618611
  -Hartree energ DENC   =     -3906.76703934
  -exchange      EXHF   =         0.00000000
  -V(xc)+E(xc)   XCENC  =      -848.06928711
  PAW double counting   =     14295.91323732   -12980.49464661
  entropy T*S    EENTRO =        -0.05093024
  eigenvalues    EBANDS =      1180.00592240
  atomic energy  EATOM  =     21129.20924906
  Solvation  Ediel_sol  =         0.00000000
  ---------------------------------------------------
  free energy    TOTEN  =      -546.79885908 eV

  energy without entropy =     -546.74792884  energy(sigma->0) =     -546.78188233


--------------------------------------------------------------------------------------------------------




----------------------------------------- Iteration    1(   6)  ---------------------------------------


    POTLOK:  cpu time    1.1560: real time    1.1571
    SETDIJ:  cpu time    1.2720: real time    1.2738
     EDDAV:  cpu time  785.6960: real time  786.6359
       DOS:  cpu time    0.0440: real time    0.0420
    CHARGE:  cpu time   21.5080: real time   21.5292
    MIXING:  cpu time    0.0320: real time    0.0343
    --------------------------------------------
      LOOP:  cpu time  809.7080: real time  810.6777

 eigenvalue-minimisations  : 43680
 total energy-change (2. order) :-0.6742406E+02  (-0.1399846E+03)
 number of electron     432.0000005 magnetization      39.4425706
 augmentation part      144.4667345 magnetization      33.8149889

 Broyden mixing:
  rms(total) = 0.95266E+01    rms(broyden)= 0.95254E+01
  rms(prec ) = 0.12905E+02
  weight for this iteration     100.00

 eigenvalues of (default mixing * dielectric matrix)
  average eigenvalue GAMMA=   0.4059
  0.4059

 Free energy of the ion-electron system (eV)
  ---------------------------------------------------
  alpha Z        PSCENC =      1700.89082154
  Ewald energy   TEWEN  =    -21117.43618611
  -Hartree energ DENC   =     -3185.41520905
  -exchange      EXHF   =         0.00000000
  -V(xc)+E(xc)   XCENC  =      -859.97311285
  PAW double counting   =     13316.97039214   -11920.69845550
  entropy T*S    EENTRO =        -0.21933730
  eigenvalues    EBANDS =       322.44892311
  atomic energy  EATOM  =     21129.20924906
  Solvation  Ediel_sol  =         0.00000000
  ---------------------------------------------------
  free energy    TOTEN  =      -614.22291495 eV

  energy without entropy =     -614.00357765  energy(sigma->0) =     -614.14980252


--------------------------------------------------------------------------------------------------------




----------------------------------------- Iteration    1(   7)  ---------------------------------------


    POTLOK:  cpu time    0.8440: real time    0.8460
    SETDIJ:  cpu time    0.9080: real time    0.9110
     EDDAV:  cpu time  852.3760: real time  853.7805
       DOS:  cpu time    0.0400: real time    0.0420
    CHARGE:  cpu time   28.4240: real time   28.4651
    MIXING:  cpu time    0.0760: real time    0.0784
    --------------------------------------------
      LOOP:  cpu time  882.6720: real time  884.1375

 eigenvalue-minimisations  : 49104
 total energy-change (2. order) : 0.1040364E+03  (-0.6167938E+02)
 number of electron     432.0000002 magnetization      40.7067303
 augmentation part       87.5465995 magnetization      21.2270913

 Broyden mixing:
  rms(total) = 0.47475E+01    rms(broyden)= 0.47460E+01
  rms(prec ) = 0.66373E+01
  weight for this iteration     100.00

 eigenvalues of (default mixing * dielectric matrix)
  average eigenvalue GAMMA=   0.2354
  0.4186  0.0523

 Free energy of the ion-electron system (eV)
  ---------------------------------------------------
  alpha Z        PSCENC =      1700.89082154
  Ewald energy   TEWEN  =    -21117.43618611
  -Hartree energ DENC   =     -3612.99910003
  -exchange      EXHF   =         0.00000000
  -V(xc)+E(xc)   XCENC  =      -846.36674931
  PAW double counting   =     14382.84485131   -13061.67809513
  entropy T*S    EENTRO =         0.02755468
  eigenvalues    EBANDS =       915.32111153
  atomic energy  EATOM  =     21129.20924906
  Solvation  Ediel_sol  =         0.00000000
  ---------------------------------------------------
  free energy    TOTEN  =      -510.18654246 eV

  energy without entropy =     -510.21409714  energy(sigma->0) =     -510.19572736


--------------------------------------------------------------------------------------------------------




----------------------------------------- Iteration    1(   8)  ---------------------------------------


    POTLOK:  cpu time    1.2080: real time    1.2099
    SETDIJ:  cpu time    1.3360: real time    1.3373
     EDDAV:  cpu time  798.0880: real time  799.4522
       DOS:  cpu time    0.0440: real time    0.0433
    CHARGE:  cpu time   27.3440: real time   27.3912
    MIXING:  cpu time    0.0800: real time    0.0769
    --------------------------------------------
      LOOP:  cpu time  828.1040: real time  829.5166

 eigenvalue-minimisations  : 45736
 total energy-change (2. order) : 0.7494791E+01  (-0.7541586E+01)
 number of electron     432.0000002 magnetization      41.1426886
 augmentation part       84.9042825 magnetization      20.2476503

 Broyden mixing:
  rms(total) = 0.32619E+01    rms(broyden)= 0.32615E+01
  rms(prec ) = 0.40705E+01
  weight for this iteration     100.00

 eigenvalues of (default mixing * dielectric matrix)
  average eigenvalue GAMMA=   0.2763
  0.2904  0.4004  0.1382

 Free energy of the ion-electron system (eV)
  ---------------------------------------------------
  alpha Z        PSCENC =      1700.89082154
  Ewald energy   TEWEN  =    -21117.43618611
  -Hartree energ DENC   =     -3615.65077352
  -exchange      EXHF   =         0.00000000
  -V(xc)+E(xc)   XCENC  =      -844.33482415
  PAW double counting   =     14435.61299870   -13118.15086635
  entropy T*S    EENTRO =         0.03816071
  eigenvalues    EBANDS =       927.12966836
  atomic energy  EATOM  =     21129.20924906
  Solvation  Ediel_sol  =         0.00000000
  ---------------------------------------------------
  free energy    TOTEN  =      -502.69175175 eV

  energy without entropy =     -502.72991246  energy(sigma->0) =     -502.70447199


--------------------------------------------------------------------------------------------------------




----------------------------------------- Iteration    1(   9)  ---------------------------------------


    POTLOK:  cpu time    0.9880: real time    0.9893
    SETDIJ:  cpu time    1.3280: real time    1.3300
     EDDAV:  cpu time  691.1720: real time  693.6413
       DOS:  cpu time    0.0440: real time    0.0432
    CHARGE:  cpu time   23.5240: real time   23.5581
    MIXING:  cpu time    0.0440: real time    0.0452
    --------------------------------------------
      LOOP:  cpu time  717.1000: real time  719.6304

 eigenvalue-minimisations  : 45184
 total energy-change (2. order) : 0.3482206E+00  (-0.7360463E+00)
 number of electron     432.0000002 magnetization      39.0928073
 augmentation part       84.3811409 magnetization      17.9022484

 Broyden mixing:
  rms(total) = 0.29064E+01    rms(broyden)= 0.29064E+01
  rms(prec ) = 0.34810E+01
  weight for this iteration     100.00

 eigenvalues of (default mixing * dielectric matrix)
  average eigenvalue GAMMA=   0.4250
  1.0702  0.3772  0.1262  0.1262

 Free energy of the ion-electron system (eV)
  ---------------------------------------------------
  alpha Z        PSCENC =      1700.89082154
  Ewald energy   TEWEN  =    -21117.43618611
  -Hartree energ DENC   =     -3614.02423640
  -exchange      EXHF   =         0.00000000
  -V(xc)+E(xc)   XCENC  =      -843.75337789
  PAW double counting   =     14444.46121846   -13127.37997479
  entropy T*S    EENTRO =         0.05204785
  eigenvalues    EBANDS =       925.63690710
  atomic energy  EATOM  =     21129.20924906
  Solvation  Ediel_sol  =         0.00000000
  ---------------------------------------------------
  free energy    TOTEN  =      -502.34353119 eV

  energy without entropy =     -502.39557903  energy(sigma->0) =     -502.36088047


--------------------------------------------------------------------------------------------------------




----------------------------------------- Iteration    1(  10)  ---------------------------------------


    POTLOK:  cpu time    1.0280: real time    1.0287
    SETDIJ:  cpu time    1.1600: real time    1.1637
     EDDAV:  cpu time  741.8640: real time  743.9777
       DOS:  cpu time    0.0480: real time    0.0468
    CHARGE:  cpu time   25.6280: real time   25.6789
    MIXING:  cpu time    0.0400: real time    0.0421
    --------------------------------------------
      LOOP:  cpu time  769.7720: real time  771.9452

 eigenvalue-minimisations  : 46616
 total energy-change (2. order) : 0.5417849E+00  (-0.9530199E-01)
 number of electron     432.0000002 magnetization      41.3926860
 augmentation part       83.4592001 magnetization      20.7292259

 Broyden mixing:
  rms(total) = 0.30278E+01    rms(broyden)= 0.30278E+01
  rms(prec ) = 0.36268E+01
  weight for this iteration     100.00

 eigenvalues of (default mixing * dielectric matrix)
  average eigenvalue GAMMA=   0.3727
  0.6159  0.6159  0.3598  0.1587  0.1134

 Free energy of the ion-electron system (eV)
  ---------------------------------------------------
  alpha Z        PSCENC =      1700.89082154
  Ewald energy   TEWEN  =    -21117.43618611
  -Hartree energ DENC   =     -3623.68551572
  -exchange      EXHF   =         0.00000000
  -V(xc)+E(xc)   XCENC  =      -846.22072221
  PAW double counting   =     14410.63783936   -13092.31336916
  entropy T*S    EENTRO =         0.02292948
  eigenvalues    EBANDS =       937.09320751
  atomic energy  EATOM  =     21129.20924906
  Solvation  Ediel_sol  =         0.00000000
  ---------------------------------------------------
  free energy    TOTEN  =      -501.80174625 eV

  energy without entropy =     -501.82467572  energy(sigma->0) =     -501.80938940


--------------------------------------------------------------------------------------------------------




----------------------------------------- Iteration    1(  11)  ---------------------------------------


    POTLOK:  cpu time    0.9800: real time    0.9800
    SETDIJ:  cpu time    1.2280: real time    1.2290
     EDDAV:  cpu time  807.3200: real time  808.8358
       DOS:  cpu time    0.0480: real time    0.0464
    CHARGE:  cpu time   20.6040: real time   20.6386
    MIXING:  cpu time    0.0320: real time    0.0301
    --------------------------------------------
      LOOP:  cpu time  830.2120: real time  831.7853

 eigenvalue-minimisations  : 53448
 total energy-change (2. order) :-0.2563667E+01  (-0.2087210E+00)
 number of electron     432.0000002 magnetization      60.9568700
 augmentation part       83.8684746 magnetization      40.2593556

 Broyden mixing:
  rms(total) = 0.35378E+01    rms(broyden)= 0.35376E+01
  rms(prec ) = 0.46279E+01
  weight for this iteration     100.00

 eigenvalues of (default mixing * dielectric matrix)
  average eigenvalue GAMMA=   0.5350
  1.2534  1.2534  0.3379  0.1678  0.1155  0.0822

 Free energy of the ion-electron system (eV)
  ---------------------------------------------------
  alpha Z        PSCENC =      1700.89082154
  Ewald energy   TEWEN  =    -21117.43618611
  -Hartree energ DENC   =     -3619.40075043
  -exchange      EXHF   =         0.00000000
  -V(xc)+E(xc)   XCENC  =      -844.24311322
  PAW double counting   =     14435.37764310   -13118.39137525
  entropy T*S    EENTRO =         0.03848517
  eigenvalues    EBANDS =       929.58981281
  atomic energy  EATOM  =     21129.20924906
  Solvation  Ediel_sol  =         0.00000000
  ---------------------------------------------------
  free energy    TOTEN  =      -504.36541332 eV

  energy without entropy =     -504.40389849  energy(sigma->0) =     -504.37824171


--------------------------------------------------------------------------------------------------------




----------------------------------------- Iteration    1(  12)  ---------------------------------------


    POTLOK:  cpu time    1.0240: real time    1.0237
    SETDIJ:  cpu time    1.1560: real time    1.1589
     EDDAV:  cpu time  779.1960: real time  780.8245
       DOS:  cpu time    0.0400: real time    0.0415
    CHARGE:  cpu time   24.9680: real time   25.0027
    MIXING:  cpu time    0.0480: real time    0.0504
    --------------------------------------------
      LOOP:  cpu time  806.4320: real time  808.1083

 eigenvalue-minimisations  : 51456
 total energy-change (2. order) :-0.4091885E+01  (-0.1594793E+01)
 number of electron     432.0000002 magnetization      67.5006048
 augmentation part       86.0042762 magnetization      43.0621099

 Broyden mixing:
  rms(total) = 0.26375E+01    rms(broyden)= 0.26369E+01
  rms(prec ) = 0.36638E+01
  weight for this iteration     100.00

 eigenvalues of (default mixing * dielectric matrix)
  average eigenvalue GAMMA=   0.5776
  1.5309  1.5309  0.3574  0.2097  0.2097  0.1128  0.0917

 Free energy of the ion-electron system (eV)
  ---------------------------------------------------
  alpha Z        PSCENC =      1700.89082154
  Ewald energy   TEWEN  =    -21117.43618611
  -Hartree energ DENC   =     -3594.98823587
  -exchange      EXHF   =         0.00000000
  -V(xc)+E(xc)   XCENC  =      -824.41072197
  PAW double counting   =     14622.09710484   -13316.88177118
  entropy T*S    EENTRO =         0.06026296
  eigenvalues    EBANDS =       893.00217883
  atomic energy  EATOM  =     21129.20924906
  Solvation  Ediel_sol  =         0.00000000
  ---------------------------------------------------
  free energy    TOTEN  =      -508.45729791 eV

  energy without entropy =     -508.51756086  energy(sigma->0) =     -508.47738556


--------------------------------------------------------------------------------------------------------




----------------------------------------- Iteration    1(  13)  ---------------------------------------


    POTLOK:  cpu time    1.0400: real time    1.0439
    SETDIJ:  cpu time    1.2440: real time    1.2454
     EDDAV:  cpu time  852.5960: real time  856.1440
       DOS:  cpu time    0.0440: real time    0.0426
    CHARGE:  cpu time   21.1360: real time   21.2068
    MIXING:  cpu time    0.0600: real time    0.0565
    --------------------------------------------
      LOOP:  cpu time  876.1240: real time  879.7486

 eigenvalue-minimisations  : 51544
 total energy-change (2. order) : 0.7329496E+00  (-0.6687422E+00)
 number of electron     432.0000002 magnetization      82.5407081
 augmentation part       86.6836342 magnetization      57.0242187

 Broyden mixing:
  rms(total) = 0.18999E+01    rms(broyden)= 0.18996E+01
  rms(prec ) = 0.23817E+01
  weight for this iteration     100.00

 eigenvalues of (default mixing * dielectric matrix)
  average eigenvalue GAMMA=   0.6288
  1.8413  1.8413  0.5124  0.3062  0.1865  0.1392  0.1138  0.0900

 Free energy of the ion-electron system (eV)
  ---------------------------------------------------
  alpha Z        PSCENC =      1700.89082154
  Ewald energy   TEWEN  =    -21117.43618611
  -Hartree energ DENC   =     -3586.96460659
  -exchange      EXHF   =         0.00000000
  -V(xc)+E(xc)   XCENC  =      -816.82506760
  PAW double counting   =     14675.79988138   -13374.64927785
  entropy T*S    EENTRO =         0.03314152
  eigenvalues    EBANDS =       882.21769632
  atomic energy  EATOM  =     21129.20924906
  Solvation  Ediel_sol  =         0.00000000
  ---------------------------------------------------
  free energy    TOTEN  =      -507.72434833 eV

  energy without entropy =     -507.75748985  energy(sigma->0) =     -507.73539550


--------------------------------------------------------------------------------------------------------




----------------------------------------- Iteration    1(  14)  ---------------------------------------


    POTLOK:  cpu time    0.9040: real time    0.9042
    SETDIJ:  cpu time    1.1400: real time    1.1452
     EDDAV:  cpu time  774.1720: real time  777.2961
       DOS:  cpu time    0.0400: real time    0.0413
    CHARGE:  cpu time   25.2920: real time   25.3929
    MIXING:  cpu time    0.0440: real time    0.0441
    --------------------------------------------
      LOOP:  cpu time  801.5960: real time  804.8299

 eigenvalue-minimisations  : 50168
 total energy-change (2. order) :-0.9233006E+00  (-0.4681318E+00)
 number of electron     432.0000002 magnetization      85.4585719
 augmentation part       87.9812384 magnetization      58.3624069

 Broyden mixing:
  rms(total) = 0.94975E+00    rms(broyden)= 0.94913E+00
  rms(prec ) = 0.11481E+01
  weight for this iteration     100.00

 eigenvalues of (default mixing * dielectric matrix)
  average eigenvalue GAMMA=   0.6085
  1.8757  1.8757  0.4309  0.4309  0.3392  0.1764  0.1452  0.1124  0.0898

 Free energy of the ion-electron system (eV)
  ---------------------------------------------------
  alpha Z        PSCENC =      1700.89082154
  Ewald energy   TEWEN  =    -21117.43618611
  -Hartree energ DENC   =     -3568.03241062
  -exchange      EXHF   =         0.00000000
  -V(xc)+E(xc)   XCENC  =      -799.62358164
  PAW double counting   =     14774.47518545   -13483.09705753
  entropy T*S    EENTRO =         0.02715576
  eigenvalues    EBANDS =       854.93917519
  atomic energy  EATOM  =     21129.20924906
  Solvation  Ediel_sol  =         0.00000000
  ---------------------------------------------------
  free energy    TOTEN  =      -508.64764888 eV

  energy without entropy =     -508.67480465  energy(sigma->0) =     -508.65670081


--------------------------------------------------------------------------------------------------------




----------------------------------------- Iteration    1(  15)  ---------------------------------------


    POTLOK:  cpu time    0.9680: real time    0.9703
    SETDIJ:  cpu time    1.2320: real time    1.2396
     EDDAV:  cpu time  816.1360: real time  818.6148
       DOS:  cpu time    0.0440: real time    0.0408
    CHARGE:  cpu time   18.5640: real time   18.5961
    MIXING:  cpu time    0.0800: real time    0.0801
    --------------------------------------------
      LOOP:  cpu time  837.0240: real time  839.5475

 eigenvalue-minimisations  : 49976
 total energy-change (2. order) :-0.2591489E+00  (-0.1588634E+00)
 number of electron     432.0000002 magnetization      91.0676195
 augmentation part       88.3951456 magnetization      63.8104370

 Broyden mixing:
  rms(total) = 0.83551E+00    rms(broyden)= 0.83537E+00
  rms(prec ) = 0.10392E+01
  weight for this iteration     100.00

 eigenvalues of (default mixing * dielectric matrix)
  average eigenvalue GAMMA=   0.6204
  1.9277  1.9277  0.6296  0.6296  0.3305  0.2318  0.1833  0.1415  0.1129  0.0898

 Free energy of the ion-electron system (eV)
  ---------------------------------------------------
  alpha Z        PSCENC =      1700.89082154
  Ewald energy   TEWEN  =    -21117.43618611
  -Hartree energ DENC   =     -3560.29756142
  -exchange      EXHF   =         0.00000000
  -V(xc)+E(xc)   XCENC  =      -797.08143154
  PAW double counting   =     14796.27440705   -13507.44088423
  entropy T*S    EENTRO =         0.03071194
  eigenvalues    EBANDS =       846.94407593
  atomic energy  EATOM  =     21129.20924906
  Solvation  Ediel_sol  =         0.00000000
  ---------------------------------------------------
  free energy    TOTEN  =      -508.90679776 eV

  energy without entropy =     -508.93750970  energy(sigma->0) =     -508.91703508


--------------------------------------------------------------------------------------------------------




----------------------------------------- Iteration    1(  16)  ---------------------------------------


    POTLOK:  cpu time    1.0960: real time    1.0958
    SETDIJ:  cpu time    1.3120: real time    1.3136
     EDDAV:  cpu time 1091.2240: real time 1093.1963
       DOS:  cpu time    0.0400: real time    0.0397
    CHARGE:  cpu time   26.3800: real time   26.4854
    MIXING:  cpu time    0.0800: real time    0.0827
    --------------------------------------------
      LOOP:  cpu time 1120.1320: real time 1122.2203

 eigenvalue-minimisations  : 49200
 total energy-change (2. order) :-0.2276281E+00  (-0.1279722E+00)
 number of electron     432.0000002 magnetization      96.7077007
 augmentation part       89.0511345 magnetization      68.7885564

 Broyden mixing:
  rms(total) = 0.53382E+00    rms(broyden)= 0.53361E+00
  rms(prec ) = 0.62857E+00
  weight for this iteration     100.00

 eigenvalues of (default mixing * dielectric matrix)
  average eigenvalue GAMMA=   0.7601
  2.2692  2.2692  1.1086  1.1086  0.5900  0.3184  0.0898  0.1128  0.1423  0.1798
  0.1728

 Free energy of the ion-electron system (eV)
  ---------------------------------------------------
  alpha Z        PSCENC =      1700.89082154
  Ewald energy   TEWEN  =    -21117.43618611
  -Hartree energ DENC   =     -3540.79115699
  -exchange      EXHF   =         0.00000000
  -V(xc)+E(xc)   XCENC  =      -793.88281872
  PAW double counting   =     14839.77106603   -13556.92310415
  entropy T*S    EENTRO =         0.02942567
  eigenvalues    EBANDS =       829.99827776
  atomic energy  EATOM  =     21129.20924906
  Solvation  Ediel_sol  =         0.00000000
  ---------------------------------------------------
  free energy    TOTEN  =      -509.13442590 eV

  energy without entropy =     -509.16385157  energy(sigma->0) =     -509.14423445


--------------------------------------------------------------------------------------------------------




----------------------------------------- Iteration    1(  17)  ---------------------------------------


    POTLOK:  cpu time    1.1440: real time    1.1502
    SETDIJ:  cpu time    1.5560: real time    1.5617
     EDDAV:  cpu time 1101.3400: real time 1105.6607
       DOS:  cpu time    0.0520: real time    0.0507
    CHARGE:  cpu time   26.1560: real time   26.2802
    MIXING:  cpu time    0.1280: real time    0.1284
    --------------------------------------------
      LOOP:  cpu time 1130.3800: real time 1134.8408

 eigenvalue-minimisations  : 51600
 total energy-change (2. order) :-0.6084057E+00  (-0.1775539E+00)
 number of electron     432.0000002 magnetization      99.8519088
 augmentation part       89.4442286 magnetization      71.4388117

 Broyden mixing:
  rms(total) = 0.70115E+00    rms(broyden)= 0.70099E+00
  rms(prec ) = 0.99176E+00
  weight for this iteration     100.00

 eigenvalues of (default mixing * dielectric matrix)
  average eigenvalue GAMMA=   0.7374
  2.3096  2.3096  1.1834  1.1834  0.6004  0.3174  0.2468  0.0898  0.1128  0.1422
  0.1767  0.1767

 Free energy of the ion-electron system (eV)
  ---------------------------------------------------
  alpha Z        PSCENC =      1700.89082154
  Ewald energy   TEWEN  =    -21117.43618611
  -Hartree energ DENC   =     -3527.95654822
  -exchange      EXHF   =         0.00000000
  -V(xc)+E(xc)   XCENC  =      -791.08189041
  PAW double counting   =     14867.16313998   -13590.21042247
  entropy T*S    EENTRO =         0.02685749
  eigenvalues    EBANDS =       819.65214757
  atomic energy  EATOM  =     21129.20924906
  Solvation  Ediel_sol  =         0.00000000
  ---------------------------------------------------
  free energy    TOTEN  =      -509.74283157 eV

  energy without entropy =     -509.76968906  energy(sigma->0) =     -509.75178407


--------------------------------------------------------------------------------------------------------




----------------------------------------- Iteration    1(  18)  ---------------------------------------


    POTLOK:  cpu time    1.1600: real time    1.1649
    SETDIJ:  cpu time    1.4960: real time    1.5001
     EDDAV:  cpu time 1124.6520: real time 1128.4747
       DOS:  cpu time    0.0400: real time    0.0411
    CHARGE:  cpu time   25.1600: real time   25.2641
    MIXING:  cpu time    0.1440: real time    0.1416
    --------------------------------------------
      LOOP:  cpu time 1152.6560: real time 1156.5940

 eigenvalue-minimisations  : 52256
 total energy-change (2. order) : 0.2752260E+00  (-0.1150859E+00)
 number of electron     432.0000002 magnetization     101.9865020
 augmentation part       89.6173979 magnetization      73.1805555

 Broyden mixing:
  rms(total) = 0.27281E+00    rms(broyden)= 0.27262E+00
  rms(prec ) = 0.36035E+00
  weight for this iteration     100.00

 eigenvalues of (default mixing * dielectric matrix)
  average eigenvalue GAMMA=   0.7196
  2.0656  2.0656  1.2801  1.2801  0.7909  0.6672  0.3193  0.0898  0.1128  0.1423
  0.1898  0.1697  0.1817

 Free energy of the ion-electron system (eV)
  ---------------------------------------------------
  alpha Z        PSCENC =      1700.89082154
  Ewald energy   TEWEN  =    -21117.43618611
  -Hartree energ DENC   =     -3522.14504191
  -exchange      EXHF   =         0.00000000
  -V(xc)+E(xc)   XCENC  =      -789.49117982
  PAW double counting   =     14879.67702211   -13605.71150753
  entropy T*S    EENTRO =         0.02454307
  eigenvalues    EBANDS =       815.51467399
  atomic energy  EATOM  =     21129.20924906
  Solvation  Ediel_sol  =         0.00000000
  ---------------------------------------------------
  free energy    TOTEN  =      -509.46760559 eV

  energy without entropy =     -509.49214866  energy(sigma->0) =     -509.47578662


--------------------------------------------------------------------------------------------------------




----------------------------------------- Iteration    1(  19)  ---------------------------------------


    POTLOK:  cpu time    1.2240: real time    1.2275
    SETDIJ:  cpu time    1.5040: real time    1.5079
     EDDAV:  cpu time  947.5120: real time  950.9994
       DOS:  cpu time    0.0400: real time    0.0416
    CHARGE:  cpu time   25.6360: real time   25.7214
    MIXING:  cpu time    0.1080: real time    0.1080
    --------------------------------------------
      LOOP:  cpu time  976.0240: real time  979.6167

 eigenvalue-minimisations  : 45672
 total energy-change (2. order) :-0.5023022E-01  (-0.2551180E-01)
 number of electron     432.0000002 magnetization     102.4059943
 augmentation part       89.7937484 magnetization      73.3730613

 Broyden mixing:
  rms(total) = 0.20984E+00    rms(broyden)= 0.20979E+00
  rms(prec ) = 0.30231E+00
  weight for this iteration     100.00

 eigenvalues of (default mixing * dielectric matrix)
  average eigenvalue GAMMA=   0.7013
  2.0944  2.0944  1.2085  1.2085  0.9208  0.7020  0.3863  0.3183  0.0898  0.1128
  0.1423  0.1725  0.1783  0.1901

 Free energy of the ion-electron system (eV)
  ---------------------------------------------------
  alpha Z        PSCENC =      1700.89082154
  Ewald energy   TEWEN  =    -21117.43618611
  -Hartree energ DENC   =     -3520.13704016
  -exchange      EXHF   =         0.00000000
  -V(xc)+E(xc)   XCENC  =      -787.42886328
  PAW double counting   =     14887.48777694   -13614.61344182
  entropy T*S    EENTRO =         0.02042941
  eigenvalues    EBANDS =       812.48941861
  atomic energy  EATOM  =     21129.20924906
  Solvation  Ediel_sol  =         0.00000000
  ---------------------------------------------------
  free energy    TOTEN  =      -509.51783581 eV

  energy without entropy =     -509.53826522  energy(sigma->0) =     -509.52464561


--------------------------------------------------------------------------------------------------------




----------------------------------------- Iteration    1(  20)  ---------------------------------------


    POTLOK:  cpu time    1.1520: real time    1.1533
    SETDIJ:  cpu time    1.5040: real time    1.5089
     EDDAV:  cpu time  940.4600: real time  944.0429
       DOS:  cpu time    0.0440: real time    0.0419
    CHARGE:  cpu time   28.3000: real time   28.4132
    MIXING:  cpu time    0.0800: real time    0.0783
    --------------------------------------------
      LOOP:  cpu time  971.5400: real time  975.2461

 eigenvalue-minimisations  : 48760
 total energy-change (2. order) : 0.1567472E-01  (-0.1018000E-01)
 number of electron     432.0000002 magnetization     103.0020310
 augmentation part       89.8666580 magnetization      73.9503202

 Broyden mixing:
  rms(total) = 0.13590E+00    rms(broyden)= 0.13587E+00
  rms(prec ) = 0.18656E+00
  weight for this iteration     100.00

 eigenvalues of (default mixing * dielectric matrix)
  average eigenvalue GAMMA=   0.7564
  2.4066  2.4066  1.3809  1.3809  0.8925  0.8925  0.5866  0.3190  0.0898  0.1128
  0.1423  0.1711  0.1805  0.1922  0.1922

 Free energy of the ion-electron system (eV)
  ---------------------------------------------------
  alpha Z        PSCENC =      1700.89082154
  Ewald energy   TEWEN  =    -21117.43618611
  -Hartree energ DENC   =     -3519.78006108
  -exchange      EXHF   =         0.00000000
  -V(xc)+E(xc)   XCENC  =      -787.08978005
  PAW double counting   =     14888.26522205   -13615.55936013
  entropy T*S    EENTRO =         0.01994350
  eigenvalues    EBANDS =       811.97799013
  atomic energy  EATOM  =     21129.20924906
  Solvation  Ediel_sol  =         0.00000000
  ---------------------------------------------------
  free energy    TOTEN  =      -509.50216109 eV

  energy without entropy =     -509.52210459  energy(sigma->0) =     -509.50880892


--------------------------------------------------------------------------------------------------------




----------------------------------------- Iteration    1(  21)  ---------------------------------------


    POTLOK:  cpu time    1.1640: real time    1.1680
    SETDIJ:  cpu time    1.4400: real time    1.4469
     EDDAV:  cpu time  933.5480: real time  935.7170
       DOS:  cpu time    0.0440: real time    0.0426
    CHARGE:  cpu time   29.1000: real time   29.1510
    MIXING:  cpu time    0.1080: real time    0.1089
    --------------------------------------------
      LOOP:  cpu time  965.4040: real time  967.6420

 eigenvalue-minimisations  : 48216
 total energy-change (2. order) : 0.3557579E-02  (-0.4150334E-02)
 number of electron     432.0000002 magnetization     103.4752682
 augmentation part       89.9794334 magnetization      74.3882619

 Broyden mixing:
  rms(total) = 0.73334E-01    rms(broyden)= 0.73306E-01
  rms(prec ) = 0.10150E+00
  weight for this iteration     100.00

 eigenvalues of (default mixing * dielectric matrix)
  average eigenvalue GAMMA=   0.7698
  2.3347  2.3347  1.5028  1.5028  0.9888  0.9888  0.6477  0.6197  0.3191  0.0898
  0.1128  0.1423  0.1717  0.1793  0.1957  0.1869

 Free energy of the ion-electron system (eV)
  ---------------------------------------------------
  alpha Z        PSCENC =      1700.89082154
  Ewald energy   TEWEN  =    -21117.43618611
  -Hartree energ DENC   =     -3519.01412693
  -exchange      EXHF   =         0.00000000
  -V(xc)+E(xc)   XCENC  =      -786.85539653
  PAW double counting   =     14888.60384140   -13616.30309359
  entropy T*S    EENTRO =         0.01967896
  eigenvalues    EBANDS =       811.38660869
  atomic energy  EATOM  =     21129.20924906
  Solvation  Ediel_sol  =         0.00000000
  ---------------------------------------------------
  free energy    TOTEN  =      -509.49860351 eV

  energy without entropy =     -509.51828247  energy(sigma->0) =     -509.50516316


--------------------------------------------------------------------------------------------------------




----------------------------------------- Iteration    1(  22)  ---------------------------------------


    POTLOK:  cpu time    1.1640: real time    1.1647
    SETDIJ:  cpu time    1.3400: real time    1.3442
     EDDAV:  cpu time  971.8120: real time  973.4894
       DOS:  cpu time    0.0440: real time    0.0419
    CHARGE:  cpu time   24.8360: real time   24.8742
    MIXING:  cpu time    0.0920: real time    0.0921
    --------------------------------------------
      LOOP:  cpu time  999.2920: real time 1001.0127

 eigenvalue-minimisations  : 51656
 total energy-change (2. order) :-0.3323914E-02  (-0.2365337E-02)
 number of electron     432.0000002 magnetization     103.7799406
 augmentation part       90.0189204 magnetization      74.6495739

 Broyden mixing:
  rms(total) = 0.72405E-01    rms(broyden)= 0.72388E-01
  rms(prec ) = 0.10269E+00
  weight for this iteration     100.00

 eigenvalues of (default mixing * dielectric matrix)
  average eigenvalue GAMMA=   0.7461
  2.2578  2.2578  1.5207  1.5207  1.0879  1.0879  0.7351  0.6081  0.3191  0.0898
  0.1128  0.1423  0.2086  0.1717  0.1797  0.1970  0.1876

 Free energy of the ion-electron system (eV)
  ---------------------------------------------------
  alpha Z        PSCENC =      1700.89082154
  Ewald energy   TEWEN  =    -21117.43618611
  -Hartree energ DENC   =     -3518.18927654
  -exchange      EXHF   =         0.00000000
  -V(xc)+E(xc)   XCENC  =      -786.35840246
  PAW double counting   =     14891.85401211   -13620.07113420
  entropy T*S    EENTRO =         0.01862100
  eigenvalues    EBANDS =       810.58036818
  atomic energy  EATOM  =     21129.20924906
  Solvation  Ediel_sol  =         0.00000000
  ---------------------------------------------------
  free energy    TOTEN  =      -509.50192742 eV

  energy without entropy =     -509.52054842  energy(sigma->0) =     -509.50813442


--------------------------------------------------------------------------------------------------------




----------------------------------------- Iteration    1(  23)  ---------------------------------------


    POTLOK:  cpu time    1.1320: real time    1.1350
    SETDIJ:  cpu time    1.4720: real time    1.4741
     EDDAV:  cpu time  981.7320: real time  983.1828
       DOS:  cpu time    0.0440: real time    0.0417
    CHARGE:  cpu time   30.3160: real time   30.3599
    MIXING:  cpu time    0.1160: real time    0.1150
    --------------------------------------------
      LOOP:  cpu time 1014.8120: real time 1016.3153

 eigenvalue-minimisations  : 51912
 total energy-change (2. order) : 0.2907381E-02  (-0.1078510E-02)
 number of electron     432.0000002 magnetization     103.6756379
 augmentation part       90.0412722 magnetization      74.5140577

 Broyden mixing:
  rms(total) = 0.35582E-01    rms(broyden)= 0.35568E-01
  rms(prec ) = 0.47676E-01
[...]
    FORCOR:  cpu time    1.1640: real time    1.1672
    FORHAR:  cpu time    0.2680: real time    0.2687
    MIXING:  cpu time    0.0640: real time    0.0605
    OFIELD:  cpu time    0.0000: real time    0.0001

  FORCE on cell =-STRESS in cart. coord.  units (eV):
  Direction    XX          YY          ZZ          XY          YZ          ZX
  --------------------------------------------------------------------------------------
  Alpha Z  1700.89082  1700.89082  1700.89082
  Ewald   -7519.83342 -7515.92708 -6081.80271     0.00000    -8.71063    -0.00000
  Hartree   864.30355   866.85556  1785.82239    -0.00000    -2.06995    -0.00000
  E(xc)   -1890.16970 -1890.16710 -1899.99203     0.00004     0.14462     0.00000
  Local    1209.10900  1202.34360 -1208.43975    -0.00054    10.26570     0.00000
  n-local   476.01120   475.98450   452.15547    -0.12734    -0.51730    -0.00593
  augment  1017.88980  1017.91728  1058.32528     0.00061    -0.02829    -0.00000
  Kinetic  4142.77076  4142.54061  4193.96085     1.38518    -0.06842     0.00305
  Fock        0.00000     0.00000     0.00000     0.00000     0.00000     0.00000
  -------------------------------------------------------------------------------------
  Total       0.97200     0.43819     0.92031    -0.00000    -0.98428     0.00000
  in kB       1.34911     0.60820     1.27737    -0.00000    -1.36616     0.00000
  external pressure =        1.08 kB  Pullay stress =        0.00 kB


 VOLUME and BASIS-vectors are now :
 -----------------------------------------------------------------------------
  energy-cutoff  :      320.00
  volume of cell :     1154.33
      direct lattice vectors                 reciprocal lattice vectors
    11.000217144  0.000000000  0.000000000     0.090907296  0.052485352 -0.000000000
    -5.500108572  9.526467494  0.000000000     0.000000000  0.104970704  0.000000000
     0.000000000  0.000000000 11.015273102     0.000000000 -0.000000000  0.090783042

  length of vectors
    11.000217144 11.000217144 11.015273102     0.104970704  0.104970704  0.090783042


 FORCES acting on ions
    electron-ion (+dipol)            ewald-force                    non-local-force                 convergence-correction
 -----------------------------------------------------------------------------------------------
   -.205E+00 -.552E+01 0.269E-01   0.237E+00 0.562E+01 -.799E-14   -.355E-01 -.110E+00 -.254E-01   0.561E-03 0.326E-03 0.157E-04
   0.665E+00 0.570E+01 -.386E-01   -.634E+00 -.582E+01 0.568E-12   -.423E-01 0.139E+00 0.360E-01   -.427E-03 0.694E-03 0.823E-04
   -.185E+01 0.209E+00 -.589E-02   0.184E+01 -.207E+00 0.117E-11   0.207E-01 -.329E-02 -.132E-02   -.158E-03 -.355E-03 -.104E-03
   -.874E+01 0.264E-06 -.832E-07   0.893E+01 -.981E-11 -.613E-12   -.199E+00 0.000E+00 0.000E+00   0.757E-03 0.213E-07 -.122E-07
   0.375E+02 -.354E-06 0.352E-07   -.385E+02 0.400E-11 0.155E-11   -.106E+01 0.000E+00 0.000E+00   0.471E-03 0.160E-07 -.139E-08
   -.107E+02 0.705E-06 -.349E-06   0.109E+02 0.983E-11 0.575E-12   -.303E+00 0.000E+00 0.000E+00   -.129E-02 -.119E-07 0.117E-07
   -.185E+01 -.209E+00 0.589E-02   0.184E+01 0.207E+00 -.119E-11   0.207E-01 0.329E-02 0.132E-02   -.158E-03 0.355E-03 0.104E-03
   -.205E+00 0.552E+01 -.269E-01   0.237E+00 -.562E+01 -.641E-12   -.355E-01 0.110E+00 0.254E-01   0.561E-03 -.326E-03 -.157E-04
   0.665E+00 -.570E+01 0.386E-01   -.634E+00 0.582E+01 0.124E-13   -.423E-01 -.139E+00 -.360E-01   -.427E-03 -.694E-03 -.823E-04
   0.220E+00 -.619E+00 -.890E-02   -.210E+00 0.615E+00 -.160E-13   -.101E-01 0.871E-02 0.169E-01   0.213E-03 0.579E-04 -.756E-05
   0.328E+00 0.570E+00 0.999E-02   -.319E+00 -.565E+00 0.632E-12   -.622E-02 -.710E-02 -.184E-01   -.147E-03 0.175E-03 -.954E-04
   -.574E+00 0.531E-01 0.739E-03   0.538E+00 -.508E-01 0.112E-11   0.150E-01 -.216E-02 0.391E-02   -.666E-04 -.194E-03 0.870E-04
   -.829E+00 0.946E-08 0.347E-08   0.832E+00 -.980E-11 -.573E-12   0.499E-02 0.000E+00 0.000E+00   0.283E-03 -.157E-07 -.328E-08
   0.157E+01 -.184E-09 -.189E-08   -.156E+01 0.142E-13 -.115E-13   -.243E-01 0.000E+00 0.000E+00   0.135E-03 0.623E-08 -.449E-08
   -.683E+00 -.460E-08 -.303E-08   0.683E+00 0.984E-11 0.525E-12   0.573E-02 0.000E+00 0.000E+00   -.427E-03 -.227E-07 0.770E-08
   -.574E+00 -.531E-01 -.739E-03   0.538E+00 0.508E-01 -.113E-11   0.150E-01 0.216E-02 -.391E-02   -.666E-04 0.194E-03 -.870E-04
   0.220E+00 0.619E+00 0.890E-02   -.210E+00 -.615E+00 -.668E-12   -.101E-01 -.871E-02 -.169E-01   0.213E-03 -.578E-04 0.755E-05
   0.328E+00 -.570E+00 -.999E-02   -.319E+00 0.565E+00 -.213E-13   -.622E-02 0.710E-02 0.184E-01   -.147E-03 -.175E-03 0.954E-04
   0.196E+00 -.204E+01 -.134E+01   -.261E+00 0.199E+01 0.130E+01   0.612E-01 0.535E-01 0.447E-01   0.271E-03 -.440E-04 0.178E-03
   0.544E+00 0.196E+01 0.132E+01   -.612E+00 -.192E+01 -.128E+01   0.636E-01 -.554E-01 -.480E-01   -.109E-03 0.311E-03 0.172E-03
   -.111E+01 0.123E+00 0.636E-01   0.109E+01 -.114E+00 -.544E-01   0.212E-01 -.982E-02 -.866E-02   -.154E-03 -.298E-03 -.884E-04
   -.295E+01 0.504E-01 -.229E+01   0.297E+01 -.980E-11 0.231E+01   -.163E-02 -.403E-01 -.111E-01   0.281E-03 -.124E-05 -.167E-03
   0.913E+01 -.138E-01 -.157E+01   -.924E+01 0.160E-13 0.158E+01   0.772E-01 0.787E-02 0.149E-01   0.432E-03 0.312E-04 0.973E-03
   -.296E+01 -.180E-01 0.292E+01   0.297E+01 0.983E-11 -.291E+01   0.139E-01 0.264E-01 -.199E-01   -.660E-03 -.156E-04 0.188E-03
   -.109E+01 -.119E+00 0.523E-01   0.109E+01 0.114E+00 -.544E-01   0.205E-02 0.533E-02 -.476E-02   -.205E-03 0.257E-03 -.112E-03
   0.228E+00 0.189E+01 -.125E+01   -.261E+00 -.199E+01 0.130E+01   0.260E-01 0.835E-01 -.440E-01   0.370E-03 0.182E-04 0.191E-03
   0.602E+00 -.181E+01 0.124E+01   -.612E+00 0.192E+01 -.128E+01   0.108E-01 -.947E-01 0.419E-01   -.181E-03 -.260E-03 0.153E-03
   0.228E+00 -.189E+01 0.125E+01   -.261E+00 0.199E+01 -.130E+01   0.260E-01 -.835E-01 0.440E-01   0.370E-03 -.181E-04 -.191E-03
   0.602E+00 0.181E+01 -.124E+01   -.612E+00 -.192E+01 0.128E+01   0.108E-01 0.947E-01 -.419E-01   -.181E-03 0.260E-03 -.153E-03
   -.109E+01 0.119E+00 -.523E-01   0.109E+01 -.114E+00 0.544E-01   0.205E-02 -.533E-02 0.476E-02   -.205E-03 -.257E-03 0.112E-03
   -.295E+01 -.504E-01 0.229E+01   0.297E+01 -.981E-11 -.231E+01   -.163E-02 0.403E-01 0.111E-01   0.281E-03 0.126E-05 0.167E-03
   0.913E+01 0.138E-01 0.157E+01   -.924E+01 0.213E-13 -.158E+01   0.772E-01 -.787E-02 -.149E-01   0.432E-03 -.312E-04 -.973E-03
   -.296E+01 0.180E-01 -.292E+01   0.297E+01 0.984E-11 0.291E+01   0.139E-01 -.264E-01 0.199E-01   -.660E-03 0.156E-04 -.188E-03
   -.111E+01 -.123E+00 -.636E-01   0.109E+01 0.114E+00 0.544E-01   0.212E-01 0.982E-02 0.866E-02   -.154E-03 0.298E-03 0.884E-04
   0.196E+00 0.204E+01 0.134E+01   -.261E+00 -.199E+01 -.130E+01   0.612E-01 -.535E-01 -.447E-01   0.271E-03 0.441E-04 -.178E-03
   0.544E+00 -.196E+01 -.132E+01   -.612E+00 0.192E+01 0.128E+01   0.636E-01 0.554E-01 0.480E-01   -.109E-03 -.311E-03 -.172E-03
   0.257E+00 -.595E-01 -.151E-01   -.249E+00 0.575E-01 0.164E-01   -.306E-02 0.248E-02 -.150E-03   0.146E-03 0.288E-03 0.189E-03
   -.132E+00 0.560E+00 0.873E-01   0.116E+00 -.561E+00 -.801E-01   0.194E-01 0.114E-01 -.145E-01   -.172E-03 0.656E-04 0.255E-03
   -.140E+00 -.499E+00 -.699E-01   0.127E+00 0.505E+00 0.648E-01   0.108E-01 -.129E-01 0.143E-01   0.229E-04 -.365E-03 0.275E-03
   0.313E+00 -.441E+00 -.124E+01   -.313E+00 0.444E+00 0.125E+01   -.778E-02 -.328E-02 -.317E-01   0.383E-03 0.506E-04 -.255E-03
   0.594E+00 0.430E+00 0.125E+01   -.593E+00 -.429E+00 -.123E+01   -.853E-02 0.386E-02 -.270E-02   -.293E-03 -.696E-04 0.193E-03
   -.106E+01 0.310E-01 0.618E-01   0.105E+01 -.247E-01 -.552E-01   -.380E-02 -.109E-01 -.101E-01   -.868E-04 -.930E-04 0.161E-03
   -.627E+00 0.452E+00 -.490E+00   0.609E+00 -.440E+00 0.468E+00   0.320E-01 -.195E-01 0.488E-01   0.184E-03 0.693E-04 -.473E-04
   0.120E+01 0.693E-01 -.849E-01   -.120E+01 -.735E-01 0.101E+00   -.633E-03 0.347E-02 -.171E-01   0.298E-03 -.901E-04 0.574E-04
   -.527E+00 -.515E+00 0.578E+00   0.521E+00 0.505E+00 -.551E+00   0.221E-01 0.158E-01 -.542E-01   -.479E-03 0.147E-03 0.398E-03
   0.845E+00 -.191E+00 0.399E-01   -.853E+00 0.193E+00 -.386E-01   0.106E-01 -.380E-02 -.124E-02   0.178E-03 0.505E-03 0.234E-03
   -.371E+00 0.147E+01 -.130E+00   0.390E+00 -.148E+01 0.126E+00   -.245E-01 0.670E-02 0.124E-02   -.374E-03 -.108E-04 0.240E-03
   -.382E+00 -.130E+01 0.954E-01   0.379E+00 0.132E+01 -.951E-01   -.185E-03 -.744E-02 0.183E-03   0.199E-03 -.399E-03 0.188E-03
   -.631E+01 -.744E+01 0.952E+01   0.628E+01 0.744E+01 -.956E+01   0.318E+00 0.125E+00 -.172E+00   0.102E-02 0.115E-03 -.540E-03
   -.552E+01 0.982E+01 -.126E+02   0.534E+01 -.968E+01 0.125E+02   0.879E+00 -.567E+00 0.741E+00   -.923E-03 0.328E-03 -.568E-03
   -.280E+01 0.691E-01 -.102E+00   0.283E+01 -.851E-01 0.995E-01   -.323E-01 0.158E-01 -.470E-02   -.294E-03 -.349E-04 0.310E-03
   -.239E+01 0.169E+01 0.979E+00   0.238E+01 -.169E+01 -.968E+00   0.559E-02 0.368E-02 -.100E-01   0.332E-03 0.243E-03 0.131E-03
   0.852E+01 0.135E+01 0.872E+00   -.851E+01 -.136E+01 -.870E+00   0.709E-01 -.643E-01 -.518E-01   0.347E-03 -.714E-03 -.606E-03
   -.249E+01 -.215E+01 -.126E+01   0.246E+01 0.213E+01 0.124E+01   0.520E-01 0.303E-01 0.283E-01   -.627E-03 0.143E-04 0.357E-03
   -.239E+01 -.169E+01 -.979E+00   0.238E+01 0.169E+01 0.968E+00   0.559E-02 -.368E-02 0.100E-01   0.332E-03 -.243E-03 -.131E-03
   0.852E+01 -.135E+01 -.872E+00   -.851E+01 0.136E+01 0.870E+00   0.709E-01 0.643E-01 0.518E-01   0.347E-03 0.714E-03 0.606E-03
   -.249E+01 0.215E+01 0.126E+01   0.246E+01 -.213E+01 -.124E+01   0.520E-01 -.303E-01 -.283E-01   -.627E-03 -.143E-04 -.357E-03
   -.280E+01 -.691E-01 0.102E+00   0.283E+01 0.851E-01 -.995E-01   -.323E-01 -.158E-01 0.470E-02   -.294E-03 0.349E-04 -.310E-03
   -.631E+01 0.744E+01 -.952E+01   0.628E+01 -.744E+01 0.956E+01   0.318E+00 -.125E+00 0.172E+00   0.102E-02 -.115E-03 0.540E-03
   -.552E+01 -.982E+01 0.126E+02   0.534E+01 0.968E+01 -.125E+02   0.879E+00 0.567E+00 -.741E+00   -.923E-03 -.328E-03 0.568E-03
   -.371E+00 -.147E+01 0.130E+00   0.390E+00 0.148E+01 -.126E+00   -.245E-01 -.670E-02 -.124E-02   -.374E-03 0.108E-04 -.240E-03
   -.382E+00 0.130E+01 -.954E-01   0.379E+00 -.132E+01 0.951E-01   -.185E-03 0.744E-02 -.183E-03   0.199E-03 0.399E-03 -.188E-03
   0.845E+00 0.191E+00 -.399E-01   -.853E+00 -.193E+00 0.386E-01   0.106E-01 0.380E-02 0.124E-02   0.178E-03 -.505E-03 -.235E-03
   -.627E+00 -.452E+00 0.490E+00   0.609E+00 0.440E+00 -.468E+00   0.320E-01 0.195E-01 -.488E-01   0.184E-03 -.693E-04 0.473E-04
   0.120E+01 -.693E-01 0.849E-01   -.120E+01 0.735E-01 -.101E+00   -.633E-03 -.347E-02 0.171E-01   0.298E-03 0.901E-04 -.574E-04
   -.527E+00 0.515E+00 -.578E+00   0.521E+00 -.505E+00 0.551E+00   0.221E-01 -.158E-01 0.542E-01   -.479E-03 -.147E-03 -.398E-03
   -.106E+01 -.310E-01 -.618E-01   0.105E+01 0.247E-01 0.552E-01   -.380E-02 0.109E-01 0.101E-01   -.868E-04 0.930E-04 -.161E-03
   0.313E+00 0.441E+00 0.124E+01   -.313E+00 -.444E+00 -.125E+01   -.778E-02 0.328E-02 0.317E-01   0.383E-03 -.506E-04 0.255E-03
   0.594E+00 -.430E+00 -.125E+01   -.593E+00 0.429E+00 0.123E+01   -.853E-02 -.386E-02 0.270E-02   -.293E-03 0.696E-04 -.193E-03
   -.132E+00 -.560E+00 -.873E-01   0.116E+00 0.561E+00 0.801E-01   0.194E-01 -.114E-01 0.145E-01   -.172E-03 -.656E-04 -.255E-03
   -.140E+00 0.499E+00 0.699E-01   0.127E+00 -.505E+00 -.648E-01   0.108E-01 0.129E-01 -.143E-01   0.229E-04 0.365E-03 -.275E-03
   0.257E+00 0.595E-01 0.151E-01   -.249E+00 -.575E-01 -.164E-01   -.306E-02 -.248E-02 0.150E-03   0.146E-03 -.288E-03 -.189E-03
 -----------------------------------------------------------------------------------------------
   -.154E+01 0.562E-06 -.336E-06   -.130E-14 -.136E-12 -.483E-13   0.154E+01 0.655E-16 -.746E-16   -.305E-03 0.323E-08 -.795E-08


 POSITION                                       TOTAL-FORCE (eV/Angst)
 -----------------------------------------------------------------------------------
      3.66674      6.35098      0.00000        -0.002930     -0.011773      0.001488
     -3.66674      6.35098      0.00000        -0.012388      0.020238     -0.002524
     -0.00000      6.35098      0.00000         0.012998     -0.001418     -0.007315
      7.33348      0.00000      0.00000        -0.009712      0.000000     -0.000000
      0.29701      0.00000      0.00000        -1.997182      0.000000     -0.000000
      3.66674      0.00000      0.00000        -0.074685      0.000000     -0.000000
      5.50011      3.17549      0.00000         0.012998      0.001418      0.007315
     -1.83337      3.17549      0.00000        -0.002930      0.011773     -0.001488
      1.83337      3.17549      0.00000        -0.012388     -0.020238      0.002524
      3.66674      6.35098      5.50764        -0.000131      0.003883      0.007980
     -3.66674      6.35098      5.50764         0.002926     -0.002075     -0.008517
     -0.00000      6.35098      5.50764        -0.021476     -0.000128      0.004736
      7.33348      0.00000      5.50764         0.008451      0.000000     -0.000000
      0.00000      0.00000      5.50764        -0.007005      0.000000     -0.000000
      3.66674      0.00000      5.50764         0.005445      0.000000     -0.000000
      5.50011      3.17549      5.50764        -0.021476      0.000128     -0.004736
     -1.83337      3.17549      5.50764        -0.000131     -0.003883     -0.007980
      1.83337      3.17549      5.50764         0.002926      0.002075      0.008517
      3.66674      6.35098      8.26145        -0.004253      0.005757      0.004685
     -3.66674      6.35098      8.26145        -0.004536     -0.015419     -0.009350
     -0.00000      6.35098      8.26145         0.001010     -0.001789      0.000451
      7.33348      0.00000      8.26145         0.014049      0.010047      0.004134
      0.00000      0.00000      8.26145        -0.035629     -0.005869      0.022144
      3.66674      0.00000      8.26145         0.022928      0.008310     -0.011079
      5.50011      3.17549      8.26145         0.000704      0.001332     -0.006956
     -1.83337      3.17549      8.26145        -0.006500     -0.016695      0.000928
      1.83337      3.17549      8.26145         0.000680      0.011255      0.004065
      3.66674      6.35098      2.75382        -0.006500      0.016695     -0.000928
     -3.66674      6.35098      2.75382         0.000680     -0.011255     -0.004065
     -0.00000      6.35098      2.75382         0.000704     -0.001332      0.006956
      7.33348      0.00000      2.75382         0.014049     -0.010047     -0.004134
      0.00000      0.00000      2.75382        -0.035629      0.005869     -0.022144
      3.66674      0.00000      2.75382         0.022928     -0.008310      0.011079
      5.50011      3.17549      2.75382         0.001010      0.001789     -0.000451
     -1.83337      3.17549      2.75382        -0.004253     -0.005757     -0.004685
      1.83337      3.17549      2.75382        -0.004536      0.015419      0.009350
      5.50011      5.29248      6.88455         0.004765      0.000762      0.001275
     -1.83337      5.29248      6.88455         0.004006      0.010718     -0.006963
      1.83337      5.29248      6.88455        -0.001885     -0.007767      0.009468
      3.66674      8.46797      6.88455        -0.007670     -0.000692     -0.023013
     -3.66674      8.46797      6.88455        -0.007939      0.004515      0.011187
     -0.00000      8.46797      6.88455        -0.014200     -0.004649     -0.003421
      7.33348      2.11699      6.88455         0.014876     -0.007105      0.026940
     -0.00000      2.11699      6.88455        -0.003190     -0.000817     -0.001307
      3.66674      2.11699      6.88455         0.016603      0.005336     -0.027384
      5.50011      5.29248      1.37691         0.003533     -0.001310      0.000228
     -1.83337      5.29248      1.37691        -0.005919     -0.000537     -0.002513
      1.83337      5.29248      1.37691        -0.002443      0.004737      0.000769
      3.66674      8.46797      1.37691         0.285117      0.121984     -0.213339
     -3.66674      8.46797      1.37691         0.697937     -0.418518      0.631138
     -0.00000      8.46797      1.37691        -0.004001     -0.000232     -0.006795
      7.33348      2.11699      1.37691        -0.005539      0.004143      0.001073
     -0.00000      2.11699      1.37691         0.074950     -0.074008     -0.051110
      3.66674      2.11699      1.37691         0.020890      0.009561      0.006611
      1.83337      7.40947      9.63836        -0.005539     -0.004143     -0.001073
      5.50011      7.40947      9.63836         0.074950      0.074008      0.051110
     -1.83337      7.40947      9.63836         0.020890     -0.009561     -0.006611
      5.50011      1.05850      9.63836        -0.004001      0.000232      0.006795
      9.16685      1.05850      9.63836         0.285117     -0.121984      0.213339
      1.83337      1.05850      9.63836         0.697937      0.418518     -0.631138
      3.66674      4.23399      9.63836        -0.005919      0.000537      0.002513
      7.33348      4.23399      9.63836        -0.002443     -0.004737     -0.000769
     -0.00000      4.23399      9.63836         0.003533      0.001310     -0.000228
      1.83337      7.40947      4.13073         0.014876      0.007105     -0.026940
      5.50011      7.40947      4.13073        -0.003190      0.000817      0.001307
     -1.83337      7.40947      4.13073         0.016603     -0.005336      0.027384
      5.50011      1.05850      4.13073        -0.014200      0.004649      0.003421
      9.16685      1.05850      4.13073        -0.007670      0.000692      0.023013
      1.83337      1.05850      4.13073        -0.007939     -0.004515     -0.011187
      3.66674      4.23399      4.13073         0.004006     -0.010718      0.006963
      7.33348      4.23399      4.13073        -0.001885      0.007767     -0.009468
     -0.00000      4.23399      4.13073         0.004765     -0.000762     -0.001275
 -----------------------------------------------------------------------------------
    total drift:                               -0.004893      0.000001     -0.000000


--------------------------------------------------------------------------------------------------------



  FREE ENERGIE OF THE ION-ELECTRON SYSTEM (eV)
  ---------------------------------------------------
  free  energy   TOTEN  =      -509.49899425 eV

  energy  without entropy=     -509.51696973  energy(sigma->0) =     -509.50498608



--------------------------------------------------------------------------------------------------------


    POTLOK:  cpu time    2.3760: real time    2.3790


--------------------------------------------------------------------------------------------------------


     LOOP+:  cpu time30045.5880: real time30135.1772
    4ORBIT:  cpu time    0.0000: real time    0.0000

 total amount of memory used by VASP on root node   334145. kBytes
========================================================================

   base      :      30000. kBytes
   nonlr-proj:      20526. kBytes
   fftplans  :      28296. kBytes
   grid      :      21369. kBytes
   one-center:        559. kBytes
   wavefun   :     233395. kBytes

  
  
 General timing and accounting informations for this job:
 ========================================================
  
                  Total CPU time used (sec):    30128.699
                            User time (sec):    29931.796
                          System time (sec):      196.904
                         Elapsed time (sec):    30218.604
  
                   Maximum memory used (kb):      385080.
                   Average memory used (kb):           0.
  
                          Minor page faults:        95019
                          Major page faults:            0
                 Voluntary context switches:          549
