 vasp.5.4.1 24Jun15 (build Oct  9 2015 14:58:31) complex                         
 executed on           IFC91_ompi date 2017.05.25  07:06:24
 running on   16 total cores
 distrk:  each k-point on   16 cores,    1 groups
 distr:  one band on NCORES_PER_BAND=   4 cores,    4 groups


--------------------------------------------------------------------------------------------------------


 INCAR:
 POTCAR:   PAW_PBE Mn 06Sep2000                   
 POTCAR:   PAW_PBE As 06Sep2000                   
 POTCAR:   PAW_PBE Mn 06Sep2000                   
   VRHFIN =Mn: d6 s1                                                            
   LEXCH  = PE                                                                  
   EATOM  =   416.8732 eV,   30.6393 Ry                                         
                                                                                
   TITEL  = PAW_PBE Mn 06Sep2000                                                
   LULTRA =        F    use ultrasoft PP ?                                      
   IUNSCR =        1    unscreen: 0-lin 1-nonlin 2-no                           
   RPACOR =    2.000    partial core radius                                     
   POMASS =   54.938; ZVAL   =    7.000    mass and valenz                      
   RCORE  =    2.300    outmost cutoff radius                                   
   RWIGS  =    2.500; RWIGS  =    1.323    wigner-seitz radius (au A)           
   ENMAX  =  269.865; ENMIN  =  202.399 eV                                      
   RCLOC  =    1.725    cutoff for local pot                                    
   LCOR   =        T    correct aug charges                                     
   LPAW   =        T    paw PP                                                  
   EAUG   =  500.711                                                            
   DEXC   =    -.071                                                            
   RMAX   =    2.807    core radius for proj-oper                               
   RAUG   =    1.300    factor for augmentation sphere                          
   RDEP   =    2.338    radius for radial grids                                 
   QCUT   =   -4.454; QGAM   =    8.907    optimization parameters              
                                                                                
   Description                                                                  
     l     E      TYP  RCUT    TYP  RCUT                                        
     2   .000     23  2.300                                                     
     2   .000     23  2.300                                                     
     0   .000     23  2.300                                                     
     0   .000     23  2.300                                                     
     1  -.200     23  2.300                                                     
     1  1.500     23  2.300                                                     
     3   .000      7   .000                                                     
  local pseudopotential read in
  partial core-charges read in
  atomic valenz-charges read in
  non local Contribution for L=           2  read in
    real space projection operators read in
  non local Contribution for L=           2  read in
    real space projection operators read in
  non local Contribution for L=           0  read in
    real space projection operators read in
  non local Contribution for L=           0  read in
    real space projection operators read in
  non local Contribution for L=           1  read in
    real space projection operators read in
  non local Contribution for L=           1  read in
    real space projection operators read in
    PAW grid and wavefunctions read in

   number of l-projection  operators is LMAX  =           6
   number of lm-projection operators is LMMAX =          18

 POTCAR:   PAW_PBE As 06Sep2000                   
   VRHFIN =As: s2p3                                                             
   LEXCH  = PE                                                                  
   EATOM  =   170.0753 eV,   12.5002 Ry                                         
                                                                                
   TITEL  = PAW_PBE As 06Sep2000                                                
   LULTRA =        F    use ultrasoft PP ?                                      
   IUNSCR =        1    unscreen: 0-lin 1-nonlin 2-no                           
   RPACOR =    1.900    partial core radius                                     
   POMASS =   74.922; ZVAL   =    5.000    mass and valenz                      
   RCORE  =    2.100    outmost cutoff radius                                   
   RWIGS  =    2.300; RWIGS  =    1.217    wigner-seitz radius (au A)           
   ENMAX  =  208.680; ENMIN  =  156.510 eV                                      
   ICORE  =        3    local potential                                         
   LCOR   =        T    correct aug charges                                     
   LPAW   =        T    paw PP                                                  
   EAUG   =  462.758                                                            
   DEXC   =    -.108                                                            
   RMAX   =    3.192    core radius for proj-oper                               
   RAUG   =    1.300    factor for augmentation sphere                          
   RDEP   =    2.140    radius for radial grids                                 
   QCUT   =   -3.916; QGAM   =    7.833    optimization parameters              
                                                                                
   Description                                                                  
     l     E      TYP  RCUT    TYP  RCUT                                        
     0   .000     23  2.100                                                     
     0   .000     23  2.100                                                     
     1   .000     23  2.100                                                     
     1   .000     23  2.100                                                     
     2   .000     23  2.100                                                     
     3  -.100      7  2.100                                                     
  local pseudopotential read in
  partial core-charges read in
  atomic valenz-charges read in
  non local Contribution for L=           0  read in
    real space projection operators read in
  non local Contribution for L=           0  read in
    real space projection operators read in
  non local Contribution for L=           1  read in
    real space projection operators read in
  non local Contribution for L=           1  read in
    real space projection operators read in
  non local Contribution for L=           2  read in
    real space projection operators read in
    PAW grid and wavefunctions read in

   number of l-projection  operators is LMAX  =           5
   number of lm-projection operators is LMMAX =          13

 PAW_PBE Mn 06Sep2000                   :
 energy of atom  1       EATOM= -416.8732
 kinetic energy error for atom=    0.0239 (will be added to EATOM!!)
 PAW_PBE As 06Sep2000                   :
 energy of atom  2       EATOM= -170.0753
 kinetic energy error for atom=    0.0021 (will be added to EATOM!!)


 POSCAR: For VASP. System=    MnAs_hex           
  positions in direct lattice
  No initial velocities read in
 exchange correlation table for  LEXCH =        8
   RHO(1)=    0.500       N(1)  =     2000
   RHO(2)=  100.500       N(2)  =     4000



--------------------------------------------------------------------------------------------------------


 ion  position               nearest neighbor table
   1  0.667  0.667  0.000-  56 2.53  55 2.53  46 2.53  49 2.53  48 2.53  61 2.53  19 2.75  28 2.75

   2  0.000  0.667  0.000-  56 2.53  46 2.53  57 2.53  47 2.53  50 2.53  62 2.53  20 2.75  29 2.75

   3  0.333  0.667  0.000-  57 2.53  47 2.53  51 2.53  55 2.53  48 2.53  63 2.53  21 2.75  30 2.75

   4  0.667  0.000  0.000-  49 2.53  59 2.53  58 2.53  52 2.53  55 2.53  51 2.53  22 2.75  31 2.75

   5  0.003  0.000  0.000-  50 2.50  60 2.50  56 2.53  53 2.53  59 2.55  49 2.55  23 2.75  32 2.75

   6  0.333  0.000  0.000-  60 2.53  50 2.53  51 2.53  57 2.53  54 2.53  58 2.53  24 2.75  33 2.75

   7  0.667  0.333  0.000-  52 2.53  62 2.53  58 2.53  54 2.53  61 2.53  46 2.53  25 2.75  34 2.75

   8  0.000  0.333  0.000-  53 2.53  52 2.53  63 2.53  62 2.53  59 2.53  47 2.53  26 2.75  35 2.75

   9  0.333  0.333  0.000-  53 2.53  54 2.53  63 2.53  60 2.53  61 2.53  48 2.53  27 2.75  36 2.75

  10  0.667  0.667  0.500-  65 2.53  64 2.53  37 2.53  40 2.53  39 2.53  70 2.53  19 2.75  28 2.75

  11  0.000  0.667  0.500-  65 2.53  37 2.53  66 2.53  38 2.53  41 2.53  71 2.53  20 2.75  29 2.75

  12  0.333  0.667  0.500-  66 2.53  38 2.53  42 2.53  64 2.53  39 2.53  72 2.53  21 2.75  30 2.75

  13  0.667  0.000  0.500-  40 2.53  68 2.53  67 2.53  43 2.53  64 2.53  42 2.53  22 2.75  31 2.75

  14  0.000  0.000  0.500-  41 2.53  68 2.53  40 2.53  69 2.53  44 2.53  65 2.53  23 2.75  32 2.75

  15  0.333  0.000  0.500-  69 2.53  41 2.53  42 2.53  66 2.53  45 2.53  67 2.53  24 2.75  33 2.75

  16  0.667  0.333  0.500-  43 2.53  71 2.53  67 2.53  45 2.53  70 2.53  37 2.53  25 2.75  34 2.75

  17  0.000  0.333  0.500-  44 2.53  43 2.53  72 2.53  71 2.53  68 2.53  38 2.53  26 2.75  35 2.75

  18  0.333  0.333  0.500-  44 2.53  45 2.53  72 2.53  69 2.53  70 2.53  39 2.53  27 2.75  36 2.75

  19  0.667  0.667  0.750-  56 2.53  55 2.53  37 2.53  40 2.53  39 2.53  61 2.53   1 2.75  10 2.75

  20  0.000  0.667  0.750-  56 2.53  37 2.53  57 2.53  38 2.53  41 2.53  62 2.53   2 2.75  11 2.75

  21  0.333  0.667  0.750-  57 2.53  38 2.53  42 2.53  55 2.53  39 2.53  63 2.53   3 2.75  12 2.75

  22  0.667  0.000  0.750-  40 2.53  59 2.53  58 2.53  43 2.53  55 2.53  42 2.53   4 2.75  13 2.75

  23  0.000  0.000  0.750-  41 2.53  59 2.53  40 2.53  60 2.53  44 2.53  56 2.53  14 2.75   5 2.75

  24  0.333  0.000  0.750-  60 2.53  41 2.53  42 2.53  57 2.53  45 2.53  58 2.53   6 2.75  15 2.75

  25  0.667  0.333  0.750-  43 2.53  62 2.53  58 2.53  45 2.53  61 2.53  37 2.53   7 2.75  16 2.75

  26  0.000  0.333  0.750-  44 2.53  43 2.53  63 2.53  62 2.53  59 2.53  38 2.53   8 2.75  17 2.75

  27  0.333  0.333  0.750-  44 2.53  45 2.53  63 2.53  60 2.53  61 2.53  39 2.53   9 2.75  18 2.75

  28  0.667  0.667  0.250-  65 2.53  64 2.53  46 2.53  49 2.53  48 2.53  70 2.53   1 2.75  10 2.75

  29  0.000  0.667  0.250-  65 2.53  46 2.53  66 2.53  47 2.53  50 2.53  71 2.53   2 2.75  11 2.75

  30  0.333  0.667  0.250-  66 2.53  47 2.53  51 2.53  64 2.53  48 2.53  72 2.53   3 2.75  12 2.75

  31  0.667  0.000  0.250-  49 2.53  68 2.53  67 2.53  52 2.53  64 2.53  51 2.53   4 2.75  13 2.75

  32  0.000  0.000  0.250-  50 2.53  68 2.53  49 2.53  69 2.53  53 2.53  65 2.53  14 2.75   5 2.75

  33  0.333  0.000  0.250-  69 2.53  50 2.53  51 2.53  66 2.53  54 2.53  67 2.53   6 2.75  15 2.75

  34  0.667  0.333  0.250-  52 2.53  71 2.53  67 2.53  54 2.53  70 2.53  46 2.53   7 2.75  16 2.75

  35  0.000  0.333  0.250-  53 2.53  52 2.53  72 2.53  71 2.53  68 2.53  47 2.53   8 2.75  17 2.75

  36  0.333  0.333  0.250-  53 2.53  54 2.53  72 2.53  69 2.53  70 2.53  48 2.53   9 2.75  18 2.75

  37  0.778  0.556  0.625-  11 2.53  20 2.53  19 2.53  10 2.53  16 2.53  25 2.53
  38  0.111  0.556  0.625-  12 2.53  21 2.53  20 2.53  11 2.53  17 2.53  26 2.53
  39  0.444  0.556  0.625-  10 2.53  19 2.53  12 2.53  21 2.53  18 2.53  27 2.53
  40  0.778  0.889  0.625-  13 2.53  22 2.53  14 2.53  23 2.53  10 2.53  19 2.53
  41  0.111  0.889  0.625-  14 2.53  23 2.53  15 2.53  24 2.53  11 2.53  20 2.53
  42  0.444  0.889  0.625-  15 2.53  24 2.53  21 2.53  12 2.53  22 2.53  13 2.53
  43  0.778  0.222  0.625-  16 2.53  25 2.53  17 2.53  26 2.53  13 2.53  22 2.53
  44  0.111  0.222  0.625-  17 2.53  26 2.53  18 2.53  27 2.53  14 2.53  23 2.53
  45  0.444  0.222  0.625-  18 2.53  27 2.53  24 2.53  15 2.53  25 2.53  16 2.53
  46  0.778  0.556  0.125-   2 2.53  29 2.53  28 2.53   1 2.53   7 2.53  34 2.53
  47  0.111  0.556  0.125-   3 2.53  30 2.53  29 2.53   2 2.53   8 2.53  35 2.53
  48  0.444  0.556  0.125-   1 2.53  28 2.53   3 2.53  30 2.53   9 2.53  36 2.53
  49  0.778  0.889  0.125-   4 2.53  31 2.53  32 2.53   1 2.53  28 2.53   5 2.55
  50  0.111  0.889  0.125-   5 2.50  32 2.53   6 2.53  33 2.53   2 2.53  29 2.53
  51  0.444  0.889  0.125-   6 2.53  33 2.53  30 2.53   3 2.53  31 2.53   4 2.53
  52  0.778  0.222  0.125-   7 2.53  34 2.53   8 2.53  35 2.53   4 2.53  31 2.53
  53  0.111  0.222  0.125-   8 2.53  35 2.53   9 2.53  36 2.53  32 2.53   5 2.53
  54  0.444  0.222  0.125-   9 2.53  36 2.53  33 2.53   6 2.53  34 2.53   7 2.53
  55  0.556  0.778  0.875-   1 2.53  19 2.53   4 2.53  22 2.53  21 2.53   3 2.53
  56  0.889  0.778  0.875-   2 2.53  20 2.53  19 2.53   1 2.53  23 2.53   5 2.53
  57  0.222  0.778  0.875-   3 2.53  21 2.53  20 2.53   2 2.53   6 2.53  24 2.53
  58  0.556  0.111  0.875-   4 2.53  22 2.53   7 2.53  25 2.53  24 2.53   6 2.53
  59  0.889  0.111  0.875-  23 2.53  22 2.53   4 2.53   8 2.53  26 2.53   5 2.55
  60  0.222  0.111  0.875-   5 2.50   6 2.53  24 2.53  23 2.53   9 2.53  27 2.53
  61  0.556  0.444  0.875-   9 2.53  27 2.53  25 2.53   7 2.53   1 2.53  19 2.53
  62  0.889  0.444  0.875-   7 2.53  25 2.53   8 2.53  26 2.53   2 2.53  20 2.53
  63  0.222  0.444  0.875-   8 2.53  26 2.53   9 2.53  27 2.53   3 2.53  21 2.53
  64  0.556  0.778  0.375-  10 2.53  28 2.53  13 2.53  31 2.53  30 2.53  12 2.53
  65  0.889  0.778  0.375-  11 2.53  29 2.53  28 2.53  10 2.53  14 2.53  32 2.53
  66  0.222  0.778  0.375-  12 2.53  30 2.53  29 2.53  11 2.53  15 2.53  33 2.53
  67  0.556  0.111  0.375-  13 2.53  31 2.53  16 2.53  34 2.53  33 2.53  15 2.53
  68  0.889  0.111  0.375-  14 2.53  32 2.53  31 2.53  13 2.53  17 2.53  35 2.53
  69  0.222  0.111  0.375-  15 2.53  33 2.53  32 2.53  14 2.53  18 2.53  36 2.53
  70  0.556  0.444  0.375-  18 2.53  36 2.53  34 2.53  16 2.53  10 2.53  28 2.53
  71  0.889  0.444  0.375-  16 2.53  34 2.53  17 2.53  35 2.53  11 2.53  29 2.53
  72  0.222  0.444  0.375-  17 2.53  35 2.53  18 2.53  36 2.53  12 2.53  30 2.53

  LATTYP: Found a hexagonal cell.
 ALAT       =    11.0002171438
 C/A-ratio  =     1.0013686964
  
  Lattice vectors:
  
 A1 = (  11.0002171438,   0.0000000000,   0.0000000000)
 A2 = (  -5.5001085719,   9.5264674936,   0.0000000000)
 A3 = (   0.0000000000,   0.0000000000,  11.0152731015)


Analysis of symmetry for initial positions (statically):
=====================================================================
 Subroutine PRICEL returns:
 Original cell was already a primitive cell.
 

 Routine SETGRP: Setting up the symmetry group for a 
 hexagonal supercell.


 Subroutine GETGRP returns: Found  2 space group operations
 (whereof  2 operations were pure point group operations)
 out of a pool of 24 trial point group operations.


The static configuration has the point symmetry C_2 .


Analysis of symmetry for dynamics (positions and initial velocities):
=====================================================================
 Subroutine PRICEL returns:
 Original cell was already a primitive cell.
 

 Routine SETGRP: Setting up the symmetry group for a 
 hexagonal supercell.


 Subroutine GETGRP returns: Found  2 space group operations
 (whereof  2 operations were pure point group operations)
 out of a pool of 24 trial point group operations.


The dynamic configuration has the point symmetry C_2 .


Analysis of structural, dynamic, and magnetic symmetry:
=====================================================================
 Subroutine PRICEL returns:
 Original cell was already a primitive cell.
 

 Routine SETGRP: Setting up the symmetry group for a 
 hexagonal supercell.


 Subroutine GETGRP returns: Found  2 space group operations
 (whereof  2 operations were pure point group operations)
 out of a pool of 24 trial point group operations.


The magnetic configuration has the point symmetry C_2 .


 Subroutine INISYM returns: Found  2 space group operations
 (whereof  2 operations are pure point group operations),
 and found     1 'primitive' translations



 KPOINTS: Automatic mesh                          

Automatic generation of k-mesh.
Space group operators:
 irot       det(A)        alpha          n_x          n_y          n_z        tau_x        tau_y        tau_z
    1     1.000000     0.000000     1.000000     0.000000     0.000000     0.000000     0.000000     0.000000
    2     1.000000   180.000000     1.000000     0.000000     0.000000     0.000000     0.000000     0.000000
 
 Subroutine IBZKPT returns following result:
 ===========================================
 
 Found     24 irreducible k-points:
 
 Following reciprocal coordinates:
            Coordinates               Weight
  0.000000  0.000000  0.000000      1.000000
  0.250000  0.000000  0.000000      4.000000
  0.500000  0.000000  0.000000      2.000000
  0.000000  0.250000  0.000000      2.000000
  0.250000  0.250000  0.000000      4.000000
  0.500000  0.250000  0.000000      2.000000
  0.000000  0.500000  0.000000      1.000000
  0.000000  0.000000  0.250000      2.000000
  0.250000  0.000000  0.250000      4.000000
  0.500000  0.000000  0.250000      4.000000
 -0.250000  0.000000  0.250000      4.000000
  0.000000  0.250000  0.250000      2.000000
  0.250000  0.250000  0.250000      4.000000
  0.500000  0.250000  0.250000      4.000000
  0.000000  0.500000  0.250000      2.000000
  0.250000  0.500000  0.250000      4.000000
  0.000000 -0.250000  0.250000      2.000000
  0.000000  0.000000  0.500000      1.000000
  0.250000  0.000000  0.500000      4.000000
  0.500000  0.000000  0.500000      2.000000
  0.000000  0.250000  0.500000      2.000000
  0.250000  0.250000  0.500000      4.000000
  0.500000  0.250000  0.500000      2.000000
  0.000000  0.500000  0.500000      1.000000
 
 Following cartesian coordinates:
            Coordinates               Weight
  0.000000  0.000000  0.000000      1.000000
  0.022727  0.013121  0.000000      4.000000
  0.045454  0.026243  0.000000      2.000000
  0.000000  0.026243  0.000000      2.000000
  0.022727  0.039364  0.000000      4.000000
  0.045454  0.052485  0.000000      2.000000
  0.000000  0.052485  0.000000      1.000000
  0.000000  0.000000  0.022696      2.000000
  0.022727  0.013121  0.022696      4.000000
  0.045454  0.026243  0.022696      4.000000
 -0.022727 -0.013121  0.022696      4.000000
  0.000000  0.026243  0.022696      2.000000
  0.022727  0.039364  0.022696      4.000000
  0.045454  0.052485  0.022696      4.000000
  0.000000  0.052485  0.022696      2.000000
  0.022727  0.065607  0.022696      4.000000
  0.000000 -0.026243  0.022696      2.000000
  0.000000  0.000000  0.045392      1.000000
  0.022727  0.013121  0.045392      4.000000
  0.045454  0.026243  0.045392      2.000000
  0.000000  0.026243  0.045392      2.000000
  0.022727  0.039364  0.045392      4.000000
  0.045454  0.052485  0.045392      2.000000
  0.000000  0.052485  0.045392      1.000000
 


--------------------------------------------------------------------------------------------------------




 Dimension of arrays:
   k-points           NKPTS =     24   k-points in BZ     NKDIM =     24   number of bands    NBANDS=    300
   number of dos      NEDOS =    301   number of ions     NIONS =     72
   non local maximal  LDIM  =      6   non local SUM 2l+1 LMDIM =     18
   total plane-waves  NPLWV = 343000
   max r-space proj   IRMAX =   6047   max aug-charges    IRDMAX=  98554
   dimension x,y,z NGX =    70 NGY =   70 NGZ =   70
   dimension x,y,z NGXF=   140 NGYF=  140 NGZF=  140
   support grid    NGXF=   280 NGYF=  280 NGZF=  280
   ions per type =              36  36
 NGX,Y,Z   is equivalent  to a cutoff of  10.58, 10.58, 10.56 a.u.
 NGXF,Y,Z  is equivalent  to a cutoff of  21.16, 21.16, 21.13 a.u.


 I would recommend the setting:
   dimension x,y,z NGX =    64 NGY =   64 NGZ =   64
 SYSTEM =  MnAs hex                                
 POSCAR =  For VASP. System=    MnAs_hex           

 Startparameter for this run:
   NWRITE =      2    write-flag & timer
   PREC   = accura    normal or accurate (medium, high low for compatibility)
   ISTART =      0    job   : 0-new  1-cont  2-samecut
   ICHARG =      2    charge: 1-file 2-atom 10-const
   ISPIN  =      2    spin polarized calculation?
   LNONCOLLINEAR =      F non collinear calculations
   LSORBIT =      F    spin-orbit coupling
   INIWAV =      1    electr: 0-lowe 1-rand  2-diag
   LASPH  =      F    aspherical Exc in radial PAW
   METAGGA=      F    non-selfconsistent MetaGGA calc.

 Electronic Relaxation 1
   ENCUT  =  320.0 eV  23.52 Ry    4.85 a.u.  16.04 16.04 16.07*2*pi/ulx,y,z
   ENINI  =  320.0     initial cutoff
   ENAUG  =  500.7 eV  augmentation charge cutoff
   NELM   =    200;   NELMIN=  2; NELMDL= -5     # of ELM steps 
   EDIFF  = 0.1E-06   stopping-criterion for ELM
   LREAL  =      T    real-space projection
   NLSPLINE    = F    spline interpolate recip. space projectors
   LCOMPAT=      F    compatible to vasp.4.4
   GGA_COMPAT  = T    GGA compatible to vasp.4.4-vasp.4.6
   LMAXPAW     = -100 max onsite density
   LMAXMIX     =    2 max onsite mixed and CHGCAR
   VOSKOWN=      0    Vosko Wilk Nusair interpolation
   ROPT   =    0.00000   0.00000
 Ionic relaxation
   EDIFFG = 0.1E-05   stopping-criterion for IOM
   NSW    =      0    number of steps for IOM
   NBLOCK =      1;   KBLOCK =      1    inner block; outer block 
   IBRION =     -1    ionic relax: 0-MD 1-quasi-New 2-CG
   NFREE  =      1    steps in history (QN), initial steepest desc. (CG)
   ISIF   =      6    stress and relaxation
   IWAVPR =     10    prediction:  0-non 1-charg 2-wave 3-comb
   ISYM   =      2    0-nonsym 1-usesym 2-fastsym
   LCORR  =      T    Harris-Foulkes like correction to forces

   POTIM  = 0.5000    time-step for ionic-motion
   TEIN   =    0.0    initial temperature
   TEBEG  =    0.0;   TEEND  =   0.0 temperature during run
   SMASS  =  -3.00    Nose mass-parameter (am)
   estimated Nose-frequenzy (Omega)   =  0.10E-29 period in steps =****** mass=  -0.277E-26a.u.
   SCALEE = 1.0000    scale energy and forces
   NPACO  =    256;   APACO  = 16.0  distance and # of slots for P.C.
   PSTRESS=    0.0 pullay stress

  Mass of Ions in am
   POMASS =  54.94 74.92
  Ionic Valenz
   ZVAL   =   7.00  5.00
  Atomic Wigner-Seitz radii
   RWIGS  =  -1.00 -1.00
  virtual crystal weights 
   VCA    =   1.00  1.00
   NELECT =     432.0000    total number of electrons
   NUPDOWN=      -1.0000    fix difference up-down

 DOS related values:
   EMIN   =  10.00;   EMAX   =-10.00  energy-range for DOS
   EFERMI =   0.00
   ISMEAR =     1;   SIGMA  =   0.20  broadening in eV -4-tet -1-fermi 0-gaus

 Electronic relaxation 2 (details)
   IALGO  =     38    algorithm
   LDIAG  =      T    sub-space diagonalisation (order eigenvalues)
   LSUBROT=      F    optimize rotation matrix (better conditioning)
   TURBO    =      0    0=normal 1=particle mesh
   IRESTART =      0    0=no restart 2=restart with 2 vectors
   NREBOOT  =      0    no. of reboots
   NMIN     =      0    reboot dimension
   EREF     =   0.00    reference energy to select bands
   IMIX   =      4    mixing-type and parameters
     AMIX     =   0.40;   BMIX     =  1.00
     AMIX_MAG =   1.60;   BMIX_MAG =  1.00
     AMIN     =   0.10
     WC   =   100.;   INIMIX=   1;  MIXPRE=   1;  MAXMIX= -45

 Intra band minimization:
   WEIMIN = 0.0000     energy-eigenvalue tresh-hold
   EBREAK =  0.83E-10  absolut break condition
   DEPER  =   0.30     relativ break condition  

   TIME   =   0.40     timestep for ELM

  volume/ion in A,a.u.               =      16.03       108.19
  Fermi-wavevector in a.u.,A,eV,Ry     =   1.179759  2.229421 18.937012  1.391831
  Thomas-Fermi vector in A             =   2.316064

 Write flags
   LWAVE  =      F    write WAVECAR
   LCHARG =      F    write CHGCAR
   LVTOT  =      F    write LOCPOT, total local potential
   LVHAR  =      F    write LOCPOT, Hartree potential only
   LELF   =      F    write electronic localiz. function (ELF)
   LORBIT =      0    0 simple, 1 ext, 2 COOP (PROOUT)


 Dipole corrections
   LMONO  =      F    monopole corrections only (constant potential shift)
   LDIPOL =      F    correct potential (dipole corrections)
   IDIPOL =      0    1-x, 2-y, 3-z, 4-all directions 
   EPSILON=  1.0000000 bulk dielectric constant

 Exchange correlation treatment:
   GGA     =    --    GGA type
   LEXCH   =     8    internal setting for exchange type
   VOSKOWN=      0    Vosko Wilk Nusair interpolation
   LHFCALC =     F    Hartree Fock is set to
   LHFONE  =     F    Hartree Fock one center treatment
   AEXX    =    0.0000 exact exchange contribution

 Linear response parameters
   LEPSILON=     F    determine dielectric tensor
   LRPA    =     F    only Hartree local field effects (RPA)
   LNABLA  =     F    use nabla operator in PAW spheres
   LVEL    =     F    velocity operator in full k-point grid
   LINTERFAST=   F  fast interpolation
   KINTER  =     0    interpolate to denser k-point grid
   CSHIFT  =0.1000    complex shift for real part using Kramers Kronig
   OMEGAMAX=  -1.0    maximum frequency
   DEG_THRESHOLD= 0.2000000E-02 threshold for treating states as degnerate
   RTIME   =    0.100 relaxation time in fs

 Orbital magnetization related:
   ORBITALMAG=     F  switch on orbital magnetization
   LCHIMAG   =     F  perturbation theory with respect to B field
   DQ        =  0.001000  dq finite difference perturbation B field



--------------------------------------------------------------------------------------------------------


 Static calculation
 charge density and potential will be updated during run
 spin polarized calculation
 Variant of blocked Davidson
 Davidson routine will perform the subspace rotation
 perform sub-space diagonalisation
    after iterative eigenvector-optimisation
 modified Broyden-mixing scheme, WC =      100.0
 initial mixing is a Kerker type mixing with AMIX =  0.4000 and BMIX =      1.0000
 Hartree-type preconditioning will be used
 using additional bands           84
 real space projection scheme for non local part
 use partial core corrections
 calculate Harris-corrections to forces   (improved forces if not selfconsistent)
 use gradient corrections 
 use of overlap-Matrix (Vanderbilt PP)
 Methfessel and Paxton  Order N= 1 SIGMA  =   0.20


--------------------------------------------------------------------------------------------------------


  energy-cutoff  :      320.00
  volume of cell :     1154.33
      direct lattice vectors                 reciprocal lattice vectors
    11.000217144  0.000000000  0.000000000     0.090907296  0.052485352 -0.000000000
    -5.500108572  9.526467494  0.000000000     0.000000000  0.104970704  0.000000000
     0.000000000  0.000000000 11.015273102     0.000000000 -0.000000000  0.090783042

  length of vectors
    11.000217144 11.000217144 11.015273102     0.104970704  0.104970704  0.090783042



 k-points in units of 2pi/SCALE and weight: Automatic mesh                          
   0.00000000  0.00000000  0.00000000       0.016
   0.02272682  0.01312134  0.00000000       0.062
   0.04545365  0.02624268  0.00000000       0.031
   0.00000000  0.02624268  0.00000000       0.031
   0.02272682  0.03936401  0.00000000       0.062
   0.04545365  0.05248535  0.00000000       0.031
   0.00000000  0.05248535  0.00000000       0.016
   0.00000000  0.00000000  0.02269576       0.031
   0.02272682  0.01312134  0.02269576       0.062
   0.04545365  0.02624268  0.02269576       0.062
  -0.02272682 -0.01312134  0.02269576       0.062
   0.00000000  0.02624268  0.02269576       0.031
   0.02272682  0.03936401  0.02269576       0.062
   0.04545365  0.05248535  0.02269576       0.062
   0.00000000  0.05248535  0.02269576       0.031
   0.02272682  0.06560669  0.02269576       0.062
   0.00000000 -0.02624268  0.02269576       0.031
   0.00000000  0.00000000  0.04539152       0.016
   0.02272682  0.01312134  0.04539152       0.062
   0.04545365  0.02624268  0.04539152       0.031
   0.00000000  0.02624268  0.04539152       0.031
   0.02272682  0.03936401  0.04539152       0.062
   0.04545365  0.05248535  0.04539152       0.031
   0.00000000  0.05248535  0.04539152       0.016

 k-points in reciprocal lattice and weights: Automatic mesh                          
   0.00000000  0.00000000  0.00000000       0.016
   0.25000000  0.00000000  0.00000000       0.062
   0.50000000  0.00000000  0.00000000       0.031
   0.00000000  0.25000000  0.00000000       0.031
   0.25000000  0.25000000  0.00000000       0.062
   0.50000000  0.25000000  0.00000000       0.031
   0.00000000  0.50000000  0.00000000       0.016
   0.00000000  0.00000000  0.25000000       0.031
   0.25000000  0.00000000  0.25000000       0.062
   0.50000000  0.00000000  0.25000000       0.062
  -0.25000000  0.00000000  0.25000000       0.062
   0.00000000  0.25000000  0.25000000       0.031
   0.25000000  0.25000000  0.25000000       0.062
   0.50000000  0.25000000  0.25000000       0.062
   0.00000000  0.50000000  0.25000000       0.031
   0.25000000  0.50000000  0.25000000       0.062
   0.00000000 -0.25000000  0.25000000       0.031
   0.00000000  0.00000000  0.50000000       0.016
   0.25000000  0.00000000  0.50000000       0.062
   0.50000000  0.00000000  0.50000000       0.031
   0.00000000  0.25000000  0.50000000       0.031
   0.25000000  0.25000000  0.50000000       0.062
   0.50000000  0.25000000  0.50000000       0.031
   0.00000000  0.50000000  0.50000000       0.016

 position of ions in fractional coordinates (direct lattice) 
   0.66666667  0.66666667  0.00000000
   0.00000000  0.66666667  0.00000000
   0.33333333  0.66666667  0.00000000
   0.66666667  0.00000000  0.00000000
   0.00300000  0.00000000  0.00000000
   0.33333333  0.00000000  0.00000000
   0.66666667  0.33333333  0.00000000
   0.00000000  0.33333333  0.00000000
   0.33333333  0.33333333  0.00000000
   0.66666667  0.66666667  0.50000000
   0.00000000  0.66666667  0.50000000
   0.33333333  0.66666667  0.50000000
   0.66666667  0.00000000  0.50000000
   0.00000000  0.00000000  0.50000000
   0.33333333  0.00000000  0.50000000
   0.66666667  0.33333333  0.50000000
   0.00000000  0.33333333  0.50000000
   0.33333333  0.33333333  0.50000000
   0.66666667  0.66666667  0.75000000
   0.00000000  0.66666667  0.75000000
   0.33333333  0.66666667  0.75000000
   0.66666667  0.00000000  0.75000000
   0.00000000  0.00000000  0.75000000
   0.33333333  0.00000000  0.75000000
   0.66666667  0.33333333  0.75000000
   0.00000000  0.33333333  0.75000000
   0.33333333  0.33333333  0.75000000
   0.66666667  0.66666667  0.25000000
   0.00000000  0.66666667  0.25000000
   0.33333333  0.66666667  0.25000000
   0.66666667  0.00000000  0.25000000
   0.00000000  0.00000000  0.25000000
   0.33333333  0.00000000  0.25000000
   0.66666667  0.33333333  0.25000000
   0.00000000  0.33333333  0.25000000
   0.33333333  0.33333333  0.25000000
   0.77777778  0.55555556  0.62500000
   0.11111111  0.55555556  0.62500000
   0.44444444  0.55555556  0.62500000
   0.77777778  0.88888889  0.62500000
   0.11111111  0.88888889  0.62500000
   0.44444444  0.88888889  0.62500000
   0.77777778  0.22222222  0.62500000
   0.11111111  0.22222222  0.62500000
   0.44444444  0.22222222  0.62500000
   0.77777778  0.55555556  0.12500000
   0.11111111  0.55555556  0.12500000
   0.44444444  0.55555556  0.12500000
   0.77777778  0.88888889  0.12500000
   0.11111111  0.88888889  0.12500000
   0.44444444  0.88888889  0.12500000
   0.77777778  0.22222222  0.12500000
   0.11111111  0.22222222  0.12500000
   0.44444444  0.22222222  0.12500000
   0.55555556  0.77777778  0.87500000
   0.88888889  0.77777778  0.87500000
   0.22222222  0.77777778  0.87500000
   0.55555556  0.11111111  0.87500000
   0.88888889  0.11111111  0.87500000
   0.22222222  0.11111111  0.87500000
   0.55555556  0.44444444  0.87500000
   0.88888889  0.44444444  0.87500000
   0.22222222  0.44444444  0.87500000
   0.55555556  0.77777778  0.37500000
   0.88888889  0.77777778  0.37500000
   0.22222222  0.77777778  0.37500000
   0.55555556  0.11111111  0.37500000
   0.88888889  0.11111111  0.37500000
   0.22222222  0.11111111  0.37500000
   0.55555556  0.44444444  0.37500000
   0.88888889  0.44444444  0.37500000
   0.22222222  0.44444444  0.37500000

 position of ions in cartesian coordinates  (Angst):
   3.66673905  6.35097833  0.00000000
  -3.66673905  6.35097833  0.00000000
  -0.00000000  6.35097833  0.00000000
   7.33347810  0.00000000  0.00000000
   0.03300065  0.00000000  0.00000000
   3.66673905  0.00000000  0.00000000
   5.50010857  3.17548916  0.00000000
  -1.83336952  3.17548916  0.00000000
   1.83336952  3.17548916  0.00000000
   3.66673905  6.35097833  5.50763655
  -3.66673905  6.35097833  5.50763655
  -0.00000000  6.35097833  5.50763655
   7.33347810  0.00000000  5.50763655
   0.00000000  0.00000000  5.50763655
   3.66673905  0.00000000  5.50763655
   5.50010857  3.17548916  5.50763655
  -1.83336952  3.17548916  5.50763655
   1.83336952  3.17548916  5.50763655
   3.66673905  6.35097833  8.26145483
  -3.66673905  6.35097833  8.26145483
  -0.00000000  6.35097833  8.26145483
   7.33347810  0.00000000  8.26145483
   0.00000000  0.00000000  8.26145483
   3.66673905  0.00000000  8.26145483
   5.50010857  3.17548916  8.26145483
  -1.83336952  3.17548916  8.26145483
   1.83336952  3.17548916  8.26145483
   3.66673905  6.35097833  2.75381828
  -3.66673905  6.35097833  2.75381828
  -0.00000000  6.35097833  2.75381828
   7.33347810  0.00000000  2.75381828
   0.00000000  0.00000000  2.75381828
   3.66673905  0.00000000  2.75381828
   5.50010857  3.17548916  2.75381828
  -1.83336952  3.17548916  2.75381828
   1.83336952  3.17548916  2.75381828
   5.50010857  5.29248194  6.88454569
  -1.83336952  5.29248194  6.88454569
   1.83336952  5.29248194  6.88454569
   3.66673905  8.46797111  6.88454569
  -3.66673905  8.46797111  6.88454569
  -0.00000000  8.46797111  6.88454569
   7.33347810  2.11699278  6.88454569
  -0.00000000  2.11699278  6.88454569
   3.66673905  2.11699278  6.88454569
   5.50010857  5.29248194  1.37690914
  -1.83336952  5.29248194  1.37690914
   1.83336952  5.29248194  1.37690914
   3.66673905  8.46797111  1.37690914
  -3.66673905  8.46797111  1.37690914
  -0.00000000  8.46797111  1.37690914
   7.33347810  2.11699278  1.37690914
  -0.00000000  2.11699278  1.37690914
   3.66673905  2.11699278  1.37690914
   1.83336952  7.40947472  9.63836396
   5.50010857  7.40947472  9.63836396
  -1.83336952  7.40947472  9.63836396
   5.50010857  1.05849639  9.63836396
   9.16684762  1.05849639  9.63836396
   1.83336952  1.05849639  9.63836396
   3.66673905  4.23398555  9.63836396
   7.33347810  4.23398555  9.63836396
  -0.00000000  4.23398555  9.63836396
   1.83336952  7.40947472  4.13072741
   5.50010857  7.40947472  4.13072741
  -1.83336952  7.40947472  4.13072741
   5.50010857  1.05849639  4.13072741
   9.16684762  1.05849639  4.13072741
   1.83336952  1.05849639  4.13072741
   3.66673905  4.23398555  4.13072741
   7.33347810  4.23398555  4.13072741
  -0.00000000  4.23398555  4.13072741



--------------------------------------------------------------------------------------------------------


 k-point  1 :   0.0000 0.0000 0.0000  plane waves:   14931
 k-point  2 :   0.2500 0.0000 0.0000  plane waves:   14982
 k-point  3 :   0.5000 0.0000 0.0000  plane waves:   15008
 k-point  4 :   0.0000 0.2500 0.0000  plane waves:   14982
 k-point  5 :   0.2500 0.2500 0.0000  plane waves:   14994
 k-point  6 :   0.5000 0.2500 0.0000  plane waves:   14994
 k-point  7 :   0.0000 0.5000 0.0000  plane waves:   15008
 k-point  8 :   0.0000 0.0000 0.2500  plane waves:   14990
 k-point  9 :   0.2500 0.0000 0.2500  plane waves:   15013
 k-point 10 :   0.5000 0.0000 0.2500  plane waves:   15002
 k-point 11 :  -0.2500 0.0000 0.2500  plane waves:   15013
 k-point 12 :   0.0000 0.2500 0.2500  plane waves:   15013
 k-point 13 :   0.2500 0.2500 0.2500  plane waves:   15003
 k-point 14 :   0.5000 0.2500 0.2500  plane waves:   15003
 k-point 15 :   0.0000 0.5000 0.2500  plane waves:   15002
 k-point 16 :   0.2500 0.5000 0.2500  plane waves:   15003
 k-point 17 :   0.0000-0.2500 0.2500  plane waves:   15013
 k-point 18 :   0.0000 0.0000 0.5000  plane waves:   14984
 k-point 19 :   0.2500 0.0000 0.5000  plane waves:   15008
 k-point 20 :   0.5000 0.0000 0.5000  plane waves:   15044
 k-point 21 :   0.0000 0.2500 0.5000  plane waves:   15008
 k-point 22 :   0.2500 0.2500 0.5000  plane waves:   15006
 k-point 23 :   0.5000 0.2500 0.5000  plane waves:   15006
 k-point 24 :   0.0000 0.5000 0.5000  plane waves:   15044

 maximum and minimum number of plane-waves per node :      3774     3707

 maximum number of plane-waves:     15044
 maximum index in each direction: 
   IXMAX=   16   IYMAX=   16   IZMAX=   16
   IXMIN=  -16   IYMIN=  -16   IZMIN=  -16

 NGX is ok and might be reduce to  66
 NGY is ok and might be reduce to  66
 NGZ is ok and might be reduce to  66

 real space projection operators:
  total allocation   :      41364.28 KBytes
  max/ min on nodes  :      10763.80       9929.14


 parallel 3D FFT for wavefunctions:
    minimum data exchange during FFTs selected (reduces bandwidth)
 parallel 3D FFT for charge:
    minimum data exchange during FFTs selected (reduces bandwidth)


 total amount of memory used by VASP on root node   334145. kBytes
========================================================================

   base      :      30000. kBytes
   nonlr-proj:      20526. kBytes
   fftplans  :      28296. kBytes
   grid      :      21369. kBytes
   one-center:        559. kBytes
   wavefun   :     233395. kBytes

     INWAV:  cpu time    0.0000: real time    0.0003
 Broyden mixing: mesh for mixing (old mesh)
   NGX = 33   NGY = 33   NGZ = 33
  (NGX  =140   NGY  =140   NGZ  =140)
  gives a total of  35937 points

 initial charge density was supplied:
 charge density of overlapping atoms calculated
 number of electron     432.0000000 magnetization      36.0000000
 keeping initial charge density in first step


--------------------------------------------------------------------------------------------------------


 Maximum index for non-local projection operator         1589
 Maximum index for augmentation-charges         6365 (set IRDMAX)


--------------------------------------------------------------------------------------------------------


 First call to EWALD:  gamma=   0.169
 Maximum number of real-space cells 3x 3x 3
 Maximum number of reciprocal cells 3x 3x 3

 FEWALD executed in parallel
    FEWALD:  cpu time    0.0440: real time    0.0445


----------------------------------------- Iteration    1(   1)  ---------------------------------------


    POTLOK:  cpu time    1.5000: real time    1.5113
    SETDIJ:  cpu time    1.9120: real time    1.9262
     EDDAV:  cpu time  773.4960: real time  780.0328
       DOS:  cpu time    0.0440: real time    0.0438
    --------------------------------------------
      LOOP:  cpu time  776.9680: real time  783.5300

 eigenvalue-minimisations  : 28856
 total energy-change (2. order) : 0.3259241E+04  (-0.1146587E+05)
 number of electron     432.0000000 magnetization      36.0000000
 augmentation part      432.0000000 magnetization      36.0000000

 Free energy of the ion-electron system (eV)
  ---------------------------------------------------
  alpha Z        PSCENC =      1700.89082154
  Ewald energy   TEWEN  =    -21123.07935082
  -Hartree energ DENC   =     -3902.43745539
  -exchange      EXHF   =         0.00000000
  -V(xc)+E(xc)   XCENC  =      -848.11015234
  PAW double counting   =     14295.91323732   -12980.49464661
  entropy T*S    EENTRO =        -0.00179784
  eigenvalues    EBANDS =      4987.35151291
  atomic energy  EATOM  =     21129.20924906
  Solvation  Ediel_sol  =         0.00000000
  ---------------------------------------------------
  free energy    TOTEN  =      3259.24141785 eV

  energy without entropy =     3259.24321568  energy(sigma->0) =     3259.24201712


--------------------------------------------------------------------------------------------------------




----------------------------------------- Iteration    1(   2)  ---------------------------------------


     EDDAV:  cpu time  775.6320: real time  782.6698
       DOS:  cpu time    0.0520: real time    0.0531
    --------------------------------------------
      LOOP:  cpu time  775.7080: real time  782.7614

 eigenvalue-minimisations  : 28800
 total energy-change (2. order) :-0.3340410E+04  (-0.3208746E+04)
 number of electron     432.0000000 magnetization      36.0000000
 augmentation part      432.0000000 magnetization      36.0000000

 Free energy of the ion-electron system (eV)
  ---------------------------------------------------
  alpha Z        PSCENC =      1700.89082154
  Ewald energy   TEWEN  =    -21123.07935082
  -Hartree energ DENC   =     -3902.43745539
  -exchange      EXHF   =         0.00000000
  -V(xc)+E(xc)   XCENC  =      -848.11015234
  PAW double counting   =     14295.91323732   -12980.49464661
  entropy T*S    EENTRO =         0.00158640
  eigenvalues    EBANDS =      1646.93764565
  atomic energy  EATOM  =     21129.20924906
  Solvation  Ediel_sol  =         0.00000000
  ---------------------------------------------------
  free energy    TOTEN  =       -81.16906519 eV

  energy without entropy =      -81.17065158  energy(sigma->0) =      -81.16959399


--------------------------------------------------------------------------------------------------------




----------------------------------------- Iteration    1(   3)  ---------------------------------------


     EDDAV:  cpu time 1061.6000: real time 1071.3044
       DOS:  cpu time    0.0520: real time    0.0540
    --------------------------------------------
      LOOP:  cpu time 1061.6920: real time 1071.4143

 eigenvalue-minimisations  : 42456
 total energy-change (2. order) :-0.4207723E+03  (-0.3770430E+03)
 number of electron     432.0000000 magnetization      36.0000000
 augmentation part      432.0000000 magnetization      36.0000000

 Free energy of the ion-electron system (eV)
  ---------------------------------------------------
  alpha Z        PSCENC =      1700.89082154
  Ewald energy   TEWEN  =    -21123.07935082
  -Hartree energ DENC   =     -3902.43745539
  -exchange      EXHF   =         0.00000000
  -V(xc)+E(xc)   XCENC  =      -848.11015234
  PAW double counting   =     14295.91323732   -12980.49464661
  entropy T*S    EENTRO =        -0.06536396
  eigenvalues    EBANDS =      1226.23234584
  atomic energy  EATOM  =     21129.20924906
  Solvation  Ediel_sol  =         0.00000000
  ---------------------------------------------------
  free energy    TOTEN  =      -501.94131535 eV

  energy without entropy =     -501.87595139  energy(sigma->0) =     -501.91952737


--------------------------------------------------------------------------------------------------------




----------------------------------------- Iteration    1(   4)  ---------------------------------------


     EDDAV:  cpu time 1137.7400: real time 1148.0608
       DOS:  cpu time    0.0520: real time    0.0528
    --------------------------------------------
      LOOP:  cpu time 1137.8320: real time 1148.1657

 eigenvalue-minimisations  : 46160
 total energy-change (2. order) :-0.4212220E+02  (-0.3734116E+02)
 number of electron     432.0000000 magnetization      36.0000000
 augmentation part      432.0000000 magnetization      36.0000000

 Free energy of the ion-electron system (eV)
  ---------------------------------------------------
  alpha Z        PSCENC =      1700.89082154
  Ewald energy   TEWEN  =    -21123.07935082
  -Hartree energ DENC   =     -3902.43745539
  -exchange      EXHF   =         0.00000000
  -V(xc)+E(xc)   XCENC  =      -848.11015234
  PAW double counting   =     14295.91323732   -12980.49464661
  entropy T*S    EENTRO =        -0.05717361
  eigenvalues    EBANDS =      1184.10195487
  atomic energy  EATOM  =     21129.20924906
  Solvation  Ediel_sol  =         0.00000000
  ---------------------------------------------------
  free energy    TOTEN  =      -544.06351597 eV

  energy without entropy =     -544.00634236  energy(sigma->0) =     -544.04445810


--------------------------------------------------------------------------------------------------------




----------------------------------------- Iteration    1(   5)  ---------------------------------------


     EDDAV:  cpu time 1177.1800: real time 1187.7790
       DOS:  cpu time    0.0560: real time    0.0581
    CHARGE:  cpu time   43.0800: real time   43.4652
    MIXING:  cpu time    0.0240: real time    0.0260
    --------------------------------------------
      LOOP:  cpu time 1220.3880: real time 1231.3992

 eigenvalue-minimisations  : 48736
 total energy-change (2. order) :-0.2871559E+01  (-0.2708158E+01)
 number of electron     432.0000001 magnetization      39.8252481
 augmentation part       60.2066558 magnetization      21.5374072

 Broyden mixing:
  rms(total) = 0.61299E+01    rms(broyden)= 0.61282E+01
  rms(prec ) = 0.79582E+01
  weight for this iteration     100.00

 Free energy of the ion-electron system (eV)
  ---------------------------------------------------
  alpha Z        PSCENC =      1700.89082154
  Ewald energy   TEWEN  =    -21123.07935082
  -Hartree energ DENC   =     -3902.43745539
  -exchange      EXHF   =         0.00000000
  -V(xc)+E(xc)   XCENC  =      -848.11015234
  PAW double counting   =     14295.91323732   -12980.49464661
  entropy T*S    EENTRO =        -0.05315883
  eigenvalues    EBANDS =      1181.22638067
  atomic energy  EATOM  =     21129.20924906
  Solvation  Ediel_sol  =         0.00000000
  ---------------------------------------------------
  free energy    TOTEN  =      -546.93507539 eV

  energy without entropy =     -546.88191656  energy(sigma->0) =     -546.91735578


--------------------------------------------------------------------------------------------------------




----------------------------------------- Iteration    1(   6)  ---------------------------------------


    POTLOK:  cpu time    1.3880: real time    1.4011
    SETDIJ:  cpu time    1.9640: real time    1.9797
     EDDAV:  cpu time 1067.9680: real time 1077.3926
       DOS:  cpu time    0.0600: real time    0.0589
    CHARGE:  cpu time   44.4320: real time   44.8248
    MIXING:  cpu time    0.0240: real time    0.0241
    --------------------------------------------
      LOOP:  cpu time 1115.8400: real time 1125.6976

 eigenvalue-minimisations  : 43636
 total energy-change (2. order) :-0.6586962E+02  (-0.1404093E+03)
 number of electron     432.0000004 magnetization      39.6431093
 augmentation part      144.3753212 magnetization      33.8359989

 Broyden mixing:
  rms(total) = 0.92550E+01    rms(broyden)= 0.92537E+01
  rms(prec ) = 0.12459E+02
  weight for this iteration     100.00

 eigenvalues of (default mixing * dielectric matrix)
  average eigenvalue GAMMA=   0.4153
  0.4153

 Free energy of the ion-electron system (eV)
  ---------------------------------------------------
  alpha Z        PSCENC =      1700.89082154
  Ewald energy   TEWEN  =    -21123.07935082
  -Hartree energ DENC   =     -3180.24074088
  -exchange      EXHF   =         0.00000000
  -V(xc)+E(xc)   XCENC  =      -859.98159394
  PAW double counting   =     13313.14772927   -11916.78537607
  entropy T*S    EENTRO =        -0.23731414
  eigenvalues    EBANDS =       324.27187898
  atomic energy  EATOM  =     21129.20924906
  Solvation  Ediel_sol  =         0.00000000
  ---------------------------------------------------
  free energy    TOTEN  =      -612.80469700 eV

  energy without entropy =     -612.56738287  energy(sigma->0) =     -612.72559229


--------------------------------------------------------------------------------------------------------




----------------------------------------- Iteration    1(   7)  ---------------------------------------


    POTLOK:  cpu time    1.3760: real time    1.3894
    SETDIJ:  cpu time    1.9960: real time    2.0106
     EDDAV:  cpu time 1100.9840: real time 1110.7605
       DOS:  cpu time    0.0600: real time    0.0602
    CHARGE:  cpu time   44.9960: real time   45.3961
    MIXING:  cpu time    0.0520: real time    0.0532
    --------------------------------------------
      LOOP:  cpu time 1149.4680: real time 1159.6868

 eigenvalue-minimisations  : 45340
 total energy-change (2. order) : 0.1161491E+03  (-0.6140811E+02)
 number of electron     432.0000002 magnetization      35.6023493
 augmentation part       86.1771224 magnetization      14.9872066

 Broyden mixing:
  rms(total) = 0.25981E+01    rms(broyden)= 0.25961E+01
  rms(prec ) = 0.27790E+01
  weight for this iteration     100.00

 eigenvalues of (default mixing * dielectric matrix)
  average eigenvalue GAMMA=   0.5770
  0.3731  0.7809

 Free energy of the ion-electron system (eV)
  ---------------------------------------------------
  alpha Z        PSCENC =      1700.89082154
  Ewald energy   TEWEN  =    -21123.07935082
  -Hartree energ DENC   =     -3618.19564565
  -exchange      EXHF   =         0.00000000
  -V(xc)+E(xc)   XCENC  =      -845.73916153
  PAW double counting   =     14404.89345951   -13085.40406665
  entropy T*S    EENTRO =         0.00970827
  eigenvalues    EBANDS =       940.75939087
  atomic energy  EATOM  =     21129.20924906
  Solvation  Ediel_sol  =         0.00000000
  ---------------------------------------------------
  free energy    TOTEN  =      -496.65559540 eV

  energy without entropy =     -496.66530367  energy(sigma->0) =     -496.65883149


--------------------------------------------------------------------------------------------------------




----------------------------------------- Iteration    1(   8)  ---------------------------------------


    POTLOK:  cpu time    1.4640: real time    1.4874
    SETDIJ:  cpu time    1.9600: real time    1.9750
     EDDAV:  cpu time 1015.9880: real time 1025.2613
       DOS:  cpu time    0.0560: real time    0.0581
    CHARGE:  cpu time   45.1600: real time   45.5706
    MIXING:  cpu time    0.0280: real time    0.0267
    --------------------------------------------
      LOOP:  cpu time 1064.6560: real time 1074.4412

 eigenvalue-minimisations  : 40920
 total energy-change (2. order) :-0.3160914E+01  (-0.4725157E+01)
 number of electron     432.0000002 magnetization      34.9227054
 augmentation part       83.7874142 magnetization      15.7277432

 Broyden mixing:
  rms(total) = 0.30758E+01    rms(broyden)= 0.30757E+01
  rms(prec ) = 0.35843E+01
  weight for this iteration     100.00

 eigenvalues of (default mixing * dielectric matrix)
  average eigenvalue GAMMA=   0.4066
  0.8246  0.3738  0.0214

 Free energy of the ion-electron system (eV)
  ---------------------------------------------------
  alpha Z        PSCENC =      1700.89082154
  Ewald energy   TEWEN  =    -21123.07935082
  -Hartree energ DENC   =     -3636.25257051
  -exchange      EXHF   =         0.00000000
  -V(xc)+E(xc)   XCENC  =      -850.73859221
  PAW double counting   =     14313.74192398   -12989.38410537
  entropy T*S    EENTRO =        -0.04014449
  eigenvalues    EBANDS =       955.83625938
  atomic energy  EATOM  =     21129.20924906
  Solvation  Ediel_sol  =         0.00000000
  ---------------------------------------------------
  free energy    TOTEN  =      -499.81650944 eV

  energy without entropy =     -499.77636495  energy(sigma->0) =     -499.80312795


--------------------------------------------------------------------------------------------------------




----------------------------------------- Iteration    1(   9)  ---------------------------------------


    POTLOK:  cpu time    1.4800: real time    1.4945
    SETDIJ:  cpu time    1.9400: real time    1.9548
     EDDAV:  cpu time 1084.7560: real time 1094.6725
       DOS:  cpu time    0.0600: real time    0.0585
    CHARGE:  cpu time   44.9680: real time   45.3768
    MIXING:  cpu time    0.0240: real time    0.0249
    --------------------------------------------
      LOOP:  cpu time 1133.2320: real time 1143.5919

 eigenvalue-minimisations  : 44556
 total energy-change (2. order) : 0.8392249E+00  (-0.1765808E+00)
 number of electron     432.0000002 magnetization      42.6104356
 augmentation part       83.6771364 magnetization      23.4912303

 Broyden mixing:
  rms(total) = 0.29073E+01    rms(broyden)= 0.29073E+01
  rms(prec ) = 0.32066E+01
  weight for this iteration     100.00

 eigenvalues of (default mixing * dielectric matrix)
  average eigenvalue GAMMA=   0.6019
  0.9809  0.9809  0.3602  0.0855

 Free energy of the ion-electron system (eV)
  ---------------------------------------------------
  alpha Z        PSCENC =      1700.89082154
  Ewald energy   TEWEN  =    -21123.07935082
  -Hartree energ DENC   =     -3637.70468491
  -exchange      EXHF   =         0.00000000
  -V(xc)+E(xc)   XCENC  =      -851.31111744
  PAW double counting   =     14303.50129190   -12978.42163145
  entropy T*S    EENTRO =        -0.04418185
  eigenvalues    EBANDS =       957.98231946
  atomic energy  EATOM  =     21129.20924906
  Solvation  Ediel_sol  =         0.00000000
  ---------------------------------------------------
  free energy    TOTEN  =      -498.97728451 eV

  energy without entropy =     -498.93310265  energy(sigma->0) =     -498.96255722


--------------------------------------------------------------------------------------------------------




----------------------------------------- Iteration    1(  10)  ---------------------------------------


    POTLOK:  cpu time    1.5120: real time    1.5231
    SETDIJ:  cpu time    1.9960: real time    2.0130
     EDDAV:  cpu time 1228.8400: real time 1239.9285
       DOS:  cpu time    0.0560: real time    0.0585
    CHARGE:  cpu time   44.6240: real time   45.0170
    MIXING:  cpu time    0.0280: real time    0.0284
    --------------------------------------------
      LOOP:  cpu time 1277.0560: real time 1288.5745

 eigenvalue-minimisations  : 51240
 total energy-change (2. order) :-0.5544732E+01  (-0.4759231E+00)
 number of electron     432.0000002 magnetization      51.7783879
 augmentation part       81.6001543 magnetization      29.8590578

 Broyden mixing:
  rms(total) = 0.32892E+01    rms(broyden)= 0.32891E+01
  rms(prec ) = 0.40790E+01
  weight for this iteration     100.00

 eigenvalues of (default mixing * dielectric matrix)
  average eigenvalue GAMMA=   0.6071
  1.2207  1.2207  0.3630  0.1428  0.0882

 Free energy of the ion-electron system (eV)
  ---------------------------------------------------
  alpha Z        PSCENC =      1700.89082154
  Ewald energy   TEWEN  =    -21123.07935082
  -Hartree energ DENC   =     -3630.05602389
  -exchange      EXHF   =         0.00000000
  -V(xc)+E(xc)   XCENC  =      -845.43940013
  PAW double counting   =     14387.69416621   -13070.66104271
  entropy T*S    EENTRO =         0.00424902
  eigenvalues    EBANDS =       946.91531490
  atomic energy  EATOM  =     21129.20924906
  Solvation  Ediel_sol  =         0.00000000
  ---------------------------------------------------
  free energy    TOTEN  =      -504.52201681 eV

  energy without entropy =     -504.52626584  energy(sigma->0) =     -504.52343315


--------------------------------------------------------------------------------------------------------




----------------------------------------- Iteration    1(  11)  ---------------------------------------


    POTLOK:  cpu time    1.4920: real time    1.5043
    SETDIJ:  cpu time    1.9200: real time    1.9346
     EDDAV:  cpu time 1255.4880: real time 1266.5149
       DOS:  cpu time    0.0560: real time    0.0579
    CHARGE:  cpu time   45.1440: real time   45.5591
    MIXING:  cpu time    0.0320: real time    0.0302
    --------------------------------------------
      LOOP:  cpu time 1304.1360: real time 1315.6108

 eigenvalue-minimisations  : 52568
 total energy-change (2. order) :-0.4012119E+01  (-0.7652561E+00)
 number of electron     432.0000002 magnetization      71.4093164
 augmentation part       79.9593485 magnetization      46.3379031

 Broyden mixing:
  rms(total) = 0.30158E+01    rms(broyden)= 0.30156E+01
  rms(prec ) = 0.36088E+01
  weight for this iteration     100.00

 eigenvalues of (default mixing * dielectric matrix)
  average eigenvalue GAMMA=   0.7291
  1.7062  1.7062  0.4438  0.3223  0.0834  0.1123

 Free energy of the ion-electron system (eV)
  ---------------------------------------------------
  alpha Z        PSCENC =      1700.89082154
  Ewald energy   TEWEN  =    -21123.07935082
  -Hartree energ DENC   =     -3618.24227196
  -exchange      EXHF   =         0.00000000
  -V(xc)+E(xc)   XCENC  =      -836.91007599
  PAW double counting   =     14468.97053371   -13160.75558340
  entropy T*S    EENTRO =         0.09501908
  eigenvalues    EBANDS =       931.28752263
  atomic energy  EATOM  =     21129.20924906
  Solvation  Ediel_sol  =         0.00000000
  ---------------------------------------------------
  free energy    TOTEN  =      -508.53413615 eV

  energy without entropy =     -508.62915523  energy(sigma->0) =     -508.56580918


--------------------------------------------------------------------------------------------------------




----------------------------------------- Iteration    1(  12)  ---------------------------------------


    POTLOK:  cpu time    1.5480: real time    1.5598
    SETDIJ:  cpu time    2.0960: real time    2.1144
     EDDAV:  cpu time 1168.0880: real time 1178.3155
       DOS:  cpu time    0.0560: real time    0.0567
    CHARGE:  cpu time   44.8800: real time   45.2726
    MIXING:  cpu time    0.0400: real time    0.0424
    --------------------------------------------
      LOOP:  cpu time 1216.7080: real time 1227.3689

 eigenvalue-minimisations  : 48440
 total energy-change (2. order) :-0.4036129E+01  (-0.1014695E+01)
 number of electron     432.0000002 magnetization      75.3636138
 augmentation part       81.0542590 magnetization      47.3046371

 Broyden mixing:
  rms(total) = 0.21608E+01    rms(broyden)= 0.21605E+01
  rms(prec ) = 0.27368E+01
  weight for this iteration     100.00

 eigenvalues of (default mixing * dielectric matrix)
  average eigenvalue GAMMA=   0.7494
  1.8767  1.8767  0.4728  0.4728  0.3538  0.0847  0.1084

 Free energy of the ion-electron system (eV)
  ---------------------------------------------------
  alpha Z        PSCENC =      1700.89082154
  Ewald energy   TEWEN  =    -21123.07935082
  -Hartree energ DENC   =     -3575.60850929
  -exchange      EXHF   =         0.00000000
  -V(xc)+E(xc)   XCENC  =      -815.19827174
  PAW double counting   =     14555.21501726   -13261.21978665
  entropy T*S    EENTRO =         0.03193241
  eigenvalues    EBANDS =       877.18863346
  atomic energy  EATOM  =     21129.20924906
  Solvation  Ediel_sol  =         0.00000000
  ---------------------------------------------------
  free energy    TOTEN  =      -512.57026478 eV

  energy without entropy =     -512.60219719  energy(sigma->0) =     -512.58090892


--------------------------------------------------------------------------------------------------------




----------------------------------------- Iteration    1(  13)  ---------------------------------------


    POTLOK:  cpu time    1.5040: real time    1.5177
    SETDIJ:  cpu time    1.9560: real time    1.9679
     EDDAV:  cpu time 1234.0440: real time 1244.9326
       DOS:  cpu time    0.0480: real time    0.0489
    CHARGE:  cpu time   44.3920: real time   44.7779
    MIXING:  cpu time    0.0320: real time    0.0320
    --------------------------------------------
      LOOP:  cpu time 1281.9800: real time 1293.2840

 eigenvalue-minimisations  : 51544
 total energy-change (2. order) : 0.6333122E-01  (-0.3974289E+00)
 number of electron     432.0000002 magnetization      81.6599488
 augmentation part       82.1249693 magnetization      53.5739789

 Broyden mixing:
  rms(total) = 0.19680E+01    rms(broyden)= 0.19678E+01
  rms(prec ) = 0.25457E+01
  weight for this iteration     100.00

 eigenvalues of (default mixing * dielectric matrix)
  average eigenvalue GAMMA=   0.7109
  1.9250  1.9250  0.5618  0.5618  0.3518  0.0848  0.1080  0.1694

 Free energy of the ion-electron system (eV)
  ---------------------------------------------------
  alpha Z        PSCENC =      1700.89082154
  Ewald energy   TEWEN  =    -21123.07935082
  -Hartree energ DENC   =     -3564.43699285
  -exchange      EXHF   =         0.00000000
  -V(xc)+E(xc)   XCENC  =      -810.94744180
  PAW double counting   =     14582.31119058   -13290.90445287
  entropy T*S    EENTRO =         0.03164503
  eigenvalues    EBANDS =       864.41839856
  atomic energy  EATOM  =     21129.20924906
  Solvation  Ediel_sol  =         0.00000000
  ---------------------------------------------------
  free energy    TOTEN  =      -512.50693357 eV

  energy without entropy =     -512.53857859  energy(sigma->0) =     -512.51748191


--------------------------------------------------------------------------------------------------------




----------------------------------------- Iteration    1(  14)  ---------------------------------------


    POTLOK:  cpu time    1.5000: real time    1.5121
    SETDIJ:  cpu time    1.9600: real time    1.9765
     EDDAV:  cpu time 1223.2680: real time 1234.0840
       DOS:  cpu time    0.0560: real time    0.0562
    CHARGE:  cpu time   45.9520: real time   46.3698
    MIXING:  cpu time    0.0440: real time    0.0442
    --------------------------------------------
      LOOP:  cpu time 1272.7840: real time 1284.0493

 eigenvalue-minimisations  : 50992
 total energy-change (2. order) : 0.1625645E+01  (-0.3623573E+00)
 number of electron     432.0000002 magnetization      87.5506633
 augmentation part       84.3880104 magnetization      59.2041586

 Broyden mixing:
  rms(total) = 0.13700E+01    rms(broyden)= 0.13699E+01
  rms(prec ) = 0.17044E+01
  weight for this iteration     100.00

 eigenvalues of (default mixing * dielectric matrix)
  average eigenvalue GAMMA=   0.8222
  2.1974  2.1974  0.8881  0.8881  0.5365  0.3437  0.0847  0.1084  0.1556

 Free energy of the ion-electron system (eV)
  ---------------------------------------------------
  alpha Z        PSCENC =      1700.89082154
  Ewald energy   TEWEN  =    -21123.07935082
  -Hartree energ DENC   =     -3545.50282459
  -exchange      EXHF   =         0.00000000
  -V(xc)+E(xc)   XCENC  =      -805.03737719
  PAW double counting   =     14644.92214824   -13357.66405033
  entropy T*S    EENTRO =         0.02547707
  eigenvalues    EBANDS =       845.35461889
  atomic energy  EATOM  =     21129.20924906
  Solvation  Ediel_sol  =         0.00000000
  ---------------------------------------------------
  free energy    TOTEN  =      -510.88128814 eV

  energy without entropy =     -510.90676521  energy(sigma->0) =     -510.88978050


--------------------------------------------------------------------------------------------------------




----------------------------------------- Iteration    1(  15)  ---------------------------------------


    POTLOK:  cpu time    1.4640: real time    1.4775
    SETDIJ:  cpu time    1.9680: real time    1.9824
     EDDAV:  cpu time 1225.3560: real time 1236.2103
       DOS:  cpu time    0.0560: real time    0.0553
    CHARGE:  cpu time   43.2320: real time   43.5819
    MIXING:  cpu time    0.0320: real time    0.0326
    --------------------------------------------
      LOOP:  cpu time 1272.1120: real time 1283.3467

 eigenvalue-minimisations  : 51168
 total energy-change (2. order) : 0.5931863E+00  (-0.4647961E+00)
 number of electron     432.0000002 magnetization      95.3806359
 augmentation part       86.9779342 magnetization      67.2606952

 Broyden mixing:
  rms(total) = 0.11746E+01    rms(broyden)= 0.11745E+01
  rms(prec ) = 0.15924E+01
  weight for this iteration     100.00

 eigenvalues of (default mixing * dielectric matrix)
  average eigenvalue GAMMA=   0.8060
  2.3212  2.3212  0.9820  0.9820  0.5673  0.3441  0.0847  0.1084  0.1925  0.1566

 Free energy of the ion-electron system (eV)
  ---------------------------------------------------
  alpha Z        PSCENC =      1700.89082154
  Ewald energy   TEWEN  =    -21123.07935082
  -Hartree energ DENC   =     -3532.59178578
  -exchange      EXHF   =         0.00000000
  -V(xc)+E(xc)   XCENC  =      -801.02103656
  PAW double counting   =     14706.66631647   -13422.97915457
  entropy T*S    EENTRO =         0.02677517
  eigenvalues    EBANDS =       832.59006366
  atomic energy  EATOM  =     21129.20924906
  Solvation  Ediel_sol  =         0.00000000
  ---------------------------------------------------
  free energy    TOTEN  =      -510.28810183 eV

  energy without entropy =     -510.31487700  energy(sigma->0) =     -510.29702688


--------------------------------------------------------------------------------------------------------




----------------------------------------- Iteration    1(  16)  ---------------------------------------


    POTLOK:  cpu time    1.3280: real time    1.3345
    SETDIJ:  cpu time    1.6920: real time    1.6988
     EDDAV:  cpu time 1224.0680: real time 1234.7610
       DOS:  cpu time    0.0560: real time    0.0550
    CHARGE:  cpu time   44.2320: real time   44.5987
    MIXING:  cpu time    0.0440: real time    0.0455
    --------------------------------------------
      LOOP:  cpu time 1271.4200: real time 1282.5003

 eigenvalue-minimisations  : 51336
 total energy-change (2. order) : 0.7589065E+00  (-0.5407405E+00)
 number of electron     432.0000002 magnetization     100.3153225
 augmentation part       89.8553548 magnetization      72.0095467

 Broyden mixing:
  rms(total) = 0.42296E+00    rms(broyden)= 0.42257E+00
  rms(prec ) = 0.47903E+00
  weight for this iteration     100.00

 eigenvalues of (default mixing * dielectric matrix)
  average eigenvalue GAMMA=   0.8191
  2.2858  2.2858  1.1358  1.1358  0.6539  0.6539  0.3448  0.0847  0.1084  0.1588
  0.1627

 Free energy of the ion-electron system (eV)
  ---------------------------------------------------
  alpha Z        PSCENC =      1700.89082154
  Ewald energy   TEWEN  =    -21123.07935082
  -Hartree energ DENC   =     -3518.29255421
  -exchange      EXHF   =         0.00000000
  -V(xc)+E(xc)   XCENC  =      -794.96580612
  PAW double counting   =     14790.20333605   -13511.54851531
  entropy T*S    EENTRO =         0.03365268
  eigenvalues    EBANDS =       818.01997177
  atomic energy  EATOM  =     21129.20924906
  Solvation  Ediel_sol  =         0.00000000
  ---------------------------------------------------
  free energy    TOTEN  =      -509.52919535 eV

  energy without entropy =     -509.56284803  energy(sigma->0) =     -509.54041291


--------------------------------------------------------------------------------------------------------




----------------------------------------- Iteration    1(  17)  ---------------------------------------


    POTLOK:  cpu time    1.4640: real time    1.4741
    SETDIJ:  cpu time    1.9680: real time    1.9818
     EDDAV:  cpu time 1187.5320: real time 1197.6831
       DOS:  cpu time    0.0520: real time    0.0534
    CHARGE:  cpu time   44.9280: real time   45.3002
    MIXING:  cpu time    0.0360: real time    0.0389
    --------------------------------------------
      LOOP:  cpu time 1235.9800: real time 1246.5385

 eigenvalue-minimisations  : 49528
 total energy-change (2. order) :-0.3237956E+00  (-0.1178310E+00)
 number of electron     432.0000002 magnetization     103.2524045
 augmentation part       90.4883602 magnetization      74.6460954

 Broyden mixing:
  rms(total) = 0.41390E+00    rms(broyden)= 0.41376E+00
  rms(prec ) = 0.58649E+00
  weight for this iteration     100.00

 eigenvalues of (default mixing * dielectric matrix)
  average eigenvalue GAMMA=   0.7775
  2.2187  2.2187  1.4743  0.7936  0.7936  0.7625  0.3447  0.0847  0.1084  0.2030
  0.1573  0.1705

 Free energy of the ion-electron system (eV)
  ---------------------------------------------------
  alpha Z        PSCENC =      1700.89082154
  Ewald energy   TEWEN  =    -21123.07935082
  -Hartree energ DENC   =     -3513.66177870
  -exchange      EXHF   =         0.00000000
  -V(xc)+E(xc)   XCENC  =      -789.44718857
  PAW double counting   =     14835.96609861   -13560.89720853
  entropy T*S    EENTRO =         0.02942141
  eigenvalues    EBANDS =       811.13694510
  atomic energy  EATOM  =     21129.20924906
  Solvation  Ediel_sol  =         0.00000000
  ---------------------------------------------------
  free energy    TOTEN  =      -509.85299090 eV

  energy without entropy =     -509.88241232  energy(sigma->0) =     -509.86279804


--------------------------------------------------------------------------------------------------------




----------------------------------------- Iteration    1(  18)  ---------------------------------------


    POTLOK:  cpu time    1.5040: real time    1.5144
    SETDIJ:  cpu time    1.9720: real time    1.9878
     EDDAV:  cpu time 1183.4120: real time 1193.5038
       DOS:  cpu time    0.0560: real time    0.0603
    CHARGE:  cpu time   45.6480: real time   46.0350
    MIXING:  cpu time    0.0440: real time    0.0446
    --------------------------------------------
      LOOP:  cpu time 1232.6400: real time 1243.1575

 eigenvalue-minimisations  : 49192
 total energy-change (2. order) : 0.5023483E-01  (-0.4817582E-01)
 number of electron     432.0000002 magnetization     103.0883003
 augmentation part       90.6552029 magnetization      74.1843512

 Broyden mixing:
  rms(total) = 0.18515E+00    rms(broyden)= 0.18502E+00
  rms(prec ) = 0.22971E+00
  weight for this iteration     100.00

 eigenvalues of (default mixing * dielectric matrix)
  average eigenvalue GAMMA=   0.7932
  2.2577  2.2577  1.4669  1.0176  1.0176  0.6262  0.6262  0.3449  0.0847  0.1084
  0.1856  0.1588  0.1588

 Free energy of the ion-electron system (eV)
  ---------------------------------------------------
  alpha Z        PSCENC =      1700.89082154
  Ewald energy   TEWEN  =    -21123.07935082
  -Hartree energ DENC   =     -3511.19405396
  -exchange      EXHF   =         0.00000000
  -V(xc)+E(xc)   XCENC  =      -786.00900035
  PAW double counting   =     14864.53520956   -13591.72173381
  entropy T*S    EENTRO =         0.02065031
  eigenvalues    EBANDS =       807.54545240
  atomic energy  EATOM  =     21129.20924906
  Solvation  Ediel_sol  =         0.00000000
  ---------------------------------------------------
  free energy    TOTEN  =      -509.80275607 eV

  energy without entropy =     -509.82340638  energy(sigma->0) =     -509.80963951


--------------------------------------------------------------------------------------------------------




----------------------------------------- Iteration    1(  19)  ---------------------------------------


    POTLOK:  cpu time    1.4400: real time    1.4750
    SETDIJ:  cpu time    1.9600: real time    1.9761
     EDDAV:  cpu time 1173.0080: real time 1183.0396
       DOS:  cpu time    0.0560: real time    0.0594
    CHARGE:  cpu time   45.1080: real time   45.4844
    MIXING:  cpu time    0.0440: real time    0.0446
    --------------------------------------------
      LOOP:  cpu time 1221.6200: real time 1232.2912

 eigenvalue-minimisations  : 48352
 total energy-change (2. order) :-0.1153744E-02  (-0.8815283E-02)
 number of electron     432.0000002 magnetization     103.2150191
 augmentation part       90.5400820 magnetization      74.3007919

 Broyden mixing:
  rms(total) = 0.14339E+00    rms(broyden)= 0.14337E+00
  rms(prec ) = 0.19786E+00
  weight for this iteration     100.00

 eigenvalues of (default mixing * dielectric matrix)
  average eigenvalue GAMMA=   0.7799
  2.2409  2.2409  1.4820  1.1390  1.1390  0.6201  0.6201  0.3446  0.3931  0.0847
  0.1084  0.1850  0.1594  0.1614

 Free energy of the ion-electron system (eV)
  ---------------------------------------------------
  alpha Z        PSCENC =      1700.89082154
  Ewald energy   TEWEN  =    -21123.07935082
  -Hartree energ DENC   =     -3511.48977050
  -exchange      EXHF   =         0.00000000
  -V(xc)+E(xc)   XCENC  =      -786.62539559
  PAW double counting   =     14870.09996546   -13597.41601144
  entropy T*S    EENTRO =         0.02007551
  eigenvalues    EBANDS =       808.58650695
  atomic energy  EATOM  =     21129.20924906
  Solvation  Ediel_sol  =         0.00000000
  ---------------------------------------------------
  free energy    TOTEN  =      -509.80390982 eV

  energy without entropy =     -509.82398533  energy(sigma->0) =     -509.81060166


--------------------------------------------------------------------------------------------------------




----------------------------------------- Iteration    1(  20)  ---------------------------------------


    POTLOK:  cpu time    1.5360: real time    1.5497
    SETDIJ:  cpu time    2.0480: real time    2.0639
     EDDAV:  cpu time 1261.6880: real time 1272.5599
       DOS:  cpu time    0.0600: real time    0.0584
    CHARGE:  cpu time   45.7880: real time   46.1862
    MIXING:  cpu time    0.0440: real time    0.0412
    --------------------------------------------
      LOOP:  cpu time 1311.1680: real time 1322.4693

 eigenvalue-minimisations  : 52360
 total energy-change (2. order) : 0.1047524E-01  (-0.5129710E-02)
 number of electron     432.0000002 magnetization     104.0541135
 augmentation part       90.4213561 magnetization      75.0794326

 Broyden mixing:
  rms(total) = 0.92620E-01    rms(broyden)= 0.92595E-01
  rms(prec ) = 0.12678E+00
  weight for this iteration     100.00

 eigenvalues of (default mixing * dielectric matrix)
  average eigenvalue GAMMA=   0.7932
  2.0916  2.0916  1.7090  1.3413  1.3413  0.7136  0.7136  0.6602  0.3448  0.0847
  0.1084  0.1600  0.1600  0.1891  0.1891

 Free energy of the ion-electron system (eV)
  ---------------------------------------------------
  alpha Z        PSCENC =      1700.89082154
  Ewald energy   TEWEN  =    -21123.07935082
  -Hartree energ DENC   =     -3511.74205598
  -exchange      EXHF   =         0.00000000
  -V(xc)+E(xc)   XCENC  =      -786.63545903
  PAW double counting   =     14874.59023778   -13602.19451991
  entropy T*S    EENTRO =         0.01883333
  eigenvalues    EBANDS =       809.14880946
  atomic energy  EATOM  =     21129.20924906
  Solvation  Ediel_sol  =         0.00000000
  ---------------------------------------------------
  free energy    TOTEN  =      -509.79343458 eV

  energy without entropy =     -509.81226790  energy(sigma->0) =     -509.79971235


--------------------------------------------------------------------------------------------------------




----------------------------------------- Iteration    1(  21)  ---------------------------------------


    POTLOK:  cpu time    1.5200: real time    1.5322
    SETDIJ:  cpu time    2.0520: real time    2.0731
     EDDAV:  cpu time 1224.5640: real time 1235.5578
       DOS:  cpu time    0.0560: real time    0.0582
    CHARGE:  cpu time   45.5240: real time   45.9292
    MIXING:  cpu time    0.0600: real time    0.0579
    --------------------------------------------
      LOOP:  cpu time 1273.7800: real time 1285.2171

 eigenvalue-minimisations  : 50496
 total energy-change (2. order) : 0.8513136E-02  (-0.3673533E-02)
 number of electron     432.0000002 magnetization     104.0718846
 augmentation part       90.1726396 magnetization      74.9184114

 Broyden mixing:
  rms(total) = 0.42953E-01    rms(broyden)= 0.42933E-01
  rms(prec ) = 0.54734E-01
  weight for this iteration     100.00

 eigenvalues of (default mixing * dielectric matrix)
  average eigenvalue GAMMA=   0.8099
  2.0722  2.0722  2.0396  1.3078  1.3078  0.8710  0.8710  0.5930  0.5930  0.3448
  0.0847  0.1084  0.1599  0.1599  0.1897  0.1834

 Free energy of the ion-electron system (eV)
  ---------------------------------------------------
  alpha Z        PSCENC =      1700.89082154
  Ewald energy   TEWEN  =    -21123.07935082
  -Hartree energ DENC   =     -3512.15416531
  -exchange      EXHF   =         0.00000000
  -V(xc)+E(xc)   XCENC  =      -785.71183824
  PAW double counting   =     14886.27008140   -13614.92727343
  entropy T*S    EENTRO =         0.01447545
  eigenvalues    EBANDS =       809.70307892
  atomic energy  EATOM  =     21129.20924906
  Solvation  Ediel_sol  =         0.00000000
  ---------------------------------------------------
  free energy    TOTEN  =      -509.78492144 eV

  energy without entropy =     -509.79939689  energy(sigma->0) =     -509.78974659


--------------------------------------------------------------------------------------------------------




----------------------------------------- Iteration    1(  22)  ---------------------------------------


    POTLOK:  cpu time    1.4800: real time    1.5148
    SETDIJ:  cpu time    1.8720: real time    1.8886
     EDDAV:  cpu time 1221.4560: real time 1232.6579
       DOS:  cpu time    0.0520: real time    0.0539
    CHARGE:  cpu time   43.6480: real time   44.0447
    MIXING:  cpu time    0.0480: real time    0.0498
    --------------------------------------------
      LOOP:  cpu time 1268.5600: real time 1280.2285

 eigenvalue-minimisations  : 50768
 total energy-change (2. order) : 0.1998550E-03  (-0.1045261E-02)
 number of electron     432.0000002 magnetization     103.9991299
 augmentation part       90.0955335 magnetization      74.8174407

 Broyden mixing:
  rms(total) = 0.40990E-01    rms(broyden)= 0.40980E-01
  rms(prec ) = 0.55656E-01
  weight for this iteration     100.00

 eigenvalues of (default mixing * dielectric matrix)
  average eigenvalue GAMMA=   0.7969
  2.0867  2.0867  2.2240  1.2884  1.2884  1.0899  0.8188  0.6112  0.6112  0.3448
  0.0847  0.1084  0.1601  0.1601  0.2080  0.1853  0.1913

 Free energy of the ion-electron system (eV)
  ---------------------------------------------------
  alpha Z        PSCENC =      1700.89082154
  Ewald energy   TEWEN  =    -21123.07935082
  -Hartree energ DENC   =     -3512.18911493
  -exchange      EXHF   =         0.00000000
  -V(xc)+E(xc)   XCENC  =      -785.66943032
  PAW double counting   =     14888.13893849   -13616.96184872
  entropy T*S    EENTRO =         0.01376807
  eigenvalues    EBANDS =       809.86224605
  atomic energy  EATOM  =     21129.20924906
  Solvation  Ediel_sol  =         0.00000000
  ---------------------------------------------------
  free energy    TOTEN  =      -509.78472158 eV

  energy without entropy =     -509.79848965  energy(sigma->0) =     -509.78931094


--------------------------------------------------------------------------------------------------------




----------------------------------------- Iteration    1(  23)  ---------------------------------------


    POTLOK:  cpu time    1.4640: real time    1.4789
    SETDIJ:  cpu time    1.9920: real time    2.0064
     EDDAV:  cpu time 1216.6480: real time 1227.7735
       DOS:  cpu time    0.0560: real time    0.0589
    CHARGE:  cpu time   43.0040: real time   43.3849
    MIXING:  cpu time    0.0680: real time    0.0660
    --------------------------------------------
      LOOP:  cpu time 1263.2360: real time 1274.7782

 eigenvalue-minimisations  : 50584
 total energy-change (2. order) : 0.7178390E-03  (-0.5460852E-03)
 number of electron     432.0000002 magnetization     103.8169402
 augmentation part       90.0313676 magnetization      74.6167148

 Broyden mixing:
  rms(total) = 0.17937E-01    rms(broyden)= 0.17931E-01
  rms(prec ) = 0.20698E-01
[...]
    FORCOR:  cpu time    1.6000: real time    1.6128
    FORHAR:  cpu time    0.3280: real time    0.3327
    MIXING:  cpu time    0.0800: real time    0.0841
    OFIELD:  cpu time    0.0000: real time    0.0001

  FORCE on cell =-STRESS in cart. coord.  units (eV):
  Direction    XX          YY          ZZ          XY          YZ          ZX
  --------------------------------------------------------------------------------------
  Alpha Z  1700.89082  1700.89082  1700.89082
  Ewald   -7519.78044 -7519.73409 -6083.69179     0.00000    -0.10873    -0.00000
  Hartree   863.46923   863.50162  1785.13306    -0.00000    -0.02588    -0.00000
  E(xc)   -1890.09401 -1890.09395 -1899.93465     0.00004     0.00177    -0.00000
  Local    1209.89272  1209.80782 -1206.34312    -0.00054     0.12816     0.00000
  n-local   475.94082   475.93976   451.57500    -0.12712    -0.00680    -0.00002
  augment  1017.93188  1017.93309  1058.66946     0.00060    -0.00026    -0.00000
  Kinetic  4141.78340  4141.78128  4193.63612     1.39400    -0.00071    -0.00005
  Fock        0.00000     0.00000     0.00000     0.00000     0.00000     0.00000
  -------------------------------------------------------------------------------------
  Total       0.03443     0.02635    -0.06510     0.00000    -0.01245     0.00000
  in kB       0.04778     0.03657    -0.09036     0.00000    -0.01728     0.00000
  external pressure =       -0.00 kB  Pullay stress =        0.00 kB


 VOLUME and BASIS-vectors are now :
 -----------------------------------------------------------------------------
  energy-cutoff  :      320.00
  volume of cell :     1154.33
      direct lattice vectors                 reciprocal lattice vectors
    11.000217144  0.000000000  0.000000000     0.090907296  0.052485352 -0.000000000
    -5.500108572  9.526467494  0.000000000     0.000000000  0.104970704  0.000000000
     0.000000000  0.000000000 11.015273102     0.000000000 -0.000000000  0.090783042

  length of vectors
    11.000217144 11.000217144 11.015273102     0.104970704  0.104970704  0.090783042


 FORCES acting on ions
    electron-ion (+dipol)            ewald-force                    non-local-force                 convergence-correction
 -----------------------------------------------------------------------------------------------
   0.166E-01 -.627E+00 0.355E-02   -.132E-01 0.638E+00 -.799E-14   -.454E-02 -.140E-01 -.344E-02   0.212E-04 -.113E-04 0.292E-04
   0.277E-01 0.628E+00 -.373E-02   -.239E-01 -.641E+00 0.568E-12   -.447E-02 0.141E-01 0.358E-02   -.262E-04 -.205E-04 -.846E-06
   -.205E+00 0.263E-02 -.271E-03   0.204E+00 -.256E-02 0.117E-11   0.239E-02 -.354E-04 -.315E-03   0.507E-05 -.568E-04 0.196E-04
   -.105E+01 -.145E-05 0.795E-06   0.108E+01 -.981E-11 -.613E-12   -.284E-01 0.000E+00 0.000E+00   0.518E-04 0.158E-08 -.715E-09
   0.420E+01 -.509E-06 -.442E-06   -.428E+01 0.508E-12 0.206E-12   -.133E+00 0.000E+00 0.000E+00   -.736E-05 -.455E-08 -.829E-09
   -.108E+01 -.115E-07 -.126E-06   0.110E+01 0.983E-11 0.575E-12   -.294E-01 0.000E+00 0.000E+00   -.442E-04 0.134E-08 0.166E-08
   -.205E+00 -.263E-02 0.271E-03   0.204E+00 0.256E-02 -.119E-11   0.239E-02 0.354E-04 0.315E-03   0.507E-05 0.568E-04 -.196E-04
   0.166E-01 0.627E+00 -.355E-02   -.132E-01 -.638E+00 -.641E-12   -.454E-02 0.140E-01 0.344E-02   0.212E-04 0.112E-04 -.292E-04
   0.277E-01 -.628E+00 0.373E-02   -.239E-01 0.641E+00 0.124E-13   -.447E-02 -.141E-01 -.358E-02   -.262E-04 0.205E-04 0.847E-06
   0.298E-01 -.670E-01 -.108E-02   -.288E-01 0.662E-01 -.160E-13   -.122E-02 0.805E-03 0.212E-02   0.220E-04 -.698E-05 -.346E-04
   0.315E-01 0.658E-01 0.112E-02   -.301E-01 -.656E-01 0.632E-12   -.989E-03 -.108E-02 -.214E-02   0.569E-05 0.415E-04 0.442E-05
   -.644E-01 0.649E-03 -.154E-03   0.599E-01 -.629E-03 0.112E-11   0.202E-02 -.294E-04 -.237E-03   -.274E-04 0.434E-05 -.183E-04
   -.856E-01 0.402E-08 -.200E-08   0.856E-01 -.980E-11 -.573E-12   0.349E-03 0.000E+00 0.000E+00   -.132E-04 -.197E-09 0.423E-09
   0.176E+00 -.588E-07 0.387E-08   -.174E+00 0.142E-13 -.115E-13   -.267E-02 0.000E+00 0.000E+00   0.551E-04 -.416E-08 -.549E-09
   -.831E-01 -.672E-08 -.324E-08   0.837E-01 0.984E-11 0.525E-12   0.709E-03 0.000E+00 0.000E+00   -.415E-04 0.351E-08 0.159E-09
   -.644E-01 -.649E-03 0.154E-03   0.599E-01 0.629E-03 -.113E-11   0.202E-02 0.294E-04 0.237E-03   -.274E-04 -.433E-05 0.183E-04
   0.298E-01 0.670E-01 0.108E-02   -.288E-01 -.662E-01 -.668E-12   -.122E-02 -.805E-03 -.212E-02   0.220E-04 0.698E-05 0.346E-04
   0.315E-01 -.658E-01 -.112E-02   -.301E-01 0.656E-01 -.213E-13   -.989E-03 0.108E-02 0.214E-02   0.570E-05 -.415E-04 -.442E-05
   0.392E-01 -.222E+00 -.149E+00   -.459E-01 0.219E+00 0.144E+00   0.680E-02 0.568E-02 0.527E-02   0.259E-04 -.192E-04 0.171E-03
   0.415E-01 0.225E+00 0.149E+00   -.502E-01 -.218E+00 -.144E+00   0.753E-02 -.691E-02 -.532E-02   -.695E-05 0.206E-04 0.834E-04
   -.123E+00 0.150E-02 0.108E-03   0.121E+00 -.141E-02 -.670E-03   0.206E-02 -.110E-03 -.275E-03   -.189E-04 0.892E-06 0.131E-03
   -.328E+00 0.392E-02 -.284E+00   0.331E+00 -.980E-11 0.285E+00   -.671E-04 -.367E-02 0.208E-05   -.122E-04 0.192E-04 0.583E-04
   0.103E+01 -.174E-03 -.197E-01   -.105E+01 0.160E-13 0.197E-01   0.844E-02 0.108E-03 0.274E-03   0.408E-04 0.699E-05 0.709E-04
   -.332E+00 -.354E-02 0.292E+00   0.331E+00 0.983E-11 -.292E+00   0.156E-02 0.350E-02 -.368E-03   -.293E-04 0.204E-04 0.303E-04
   -.122E+00 -.145E-02 0.104E-02   0.121E+00 0.141E-02 -.670E-03   0.424E-03 0.615E-04 0.107E-03   -.237E-04 -.642E-05 0.132E-03
   0.446E-01 0.205E+00 -.140E+00   -.459E-01 -.219E+00 0.144E+00   0.136E-02 0.110E-01 -.515E-02   0.494E-05 -.565E-05 0.165E-03
   0.472E-01 -.208E+00 0.139E+00   -.502E-01 0.218E+00 -.144E+00   0.186E-02 -.997E-02 0.514E-02   0.188E-04 -.390E-04 0.871E-04
   0.446E-01 -.205E+00 0.140E+00   -.459E-01 0.219E+00 -.144E+00   0.136E-02 -.110E-01 0.515E-02   0.493E-05 0.565E-05 -.165E-03
   0.472E-01 0.208E+00 -.139E+00   -.502E-01 -.218E+00 0.144E+00   0.186E-02 0.997E-02 -.514E-02   0.189E-04 0.390E-04 -.871E-04
   -.122E+00 0.145E-02 -.104E-02   0.121E+00 -.141E-02 0.670E-03   0.424E-03 -.615E-04 -.107E-03   -.237E-04 0.641E-05 -.132E-03
   -.328E+00 -.392E-02 0.284E+00   0.331E+00 -.981E-11 -.285E+00   -.671E-04 0.367E-02 -.208E-05   -.122E-04 -.192E-04 -.583E-04
   0.103E+01 0.174E-03 0.197E-01   -.105E+01 0.213E-13 -.197E-01   0.844E-02 -.108E-03 -.274E-03   0.408E-04 -.699E-05 -.709E-04
   -.332E+00 0.354E-02 -.292E+00   0.331E+00 0.984E-11 0.292E+00   0.156E-02 -.350E-02 0.368E-03   -.293E-04 -.204E-04 -.303E-04
   -.123E+00 -.150E-02 -.108E-03   0.121E+00 0.141E-02 0.670E-03   0.206E-02 0.110E-03 0.275E-03   -.189E-04 -.897E-06 -.131E-03
   0.392E-01 0.222E+00 0.149E+00   -.459E-01 -.219E+00 -.144E+00   0.680E-02 -.568E-02 -.527E-02   0.259E-04 0.192E-04 -.171E-03
   0.415E-01 -.225E+00 -.149E+00   -.502E-01 0.218E+00 0.144E+00   0.753E-02 0.691E-02 0.532E-02   -.695E-05 -.206E-04 -.834E-04
   0.289E-01 -.707E-03 -.332E-03   -.279E-01 0.712E-03 0.203E-03   -.428E-03 -.279E-03 -.398E-03   0.881E-04 -.124E-04 0.509E-04
   -.150E-01 0.595E-01 0.885E-02   0.136E-01 -.598E-01 -.813E-02   0.206E-02 0.156E-02 -.177E-02   -.345E-04 0.607E-04 0.634E-04
   -.151E-01 -.587E-01 -.874E-02   0.137E-01 0.591E-01 0.794E-02   0.112E-02 -.109E-02 0.161E-02   -.537E-04 -.694E-04 0.365E-04
   0.484E-01 -.486E-01 -.139E+00   -.484E-01 0.489E-01 0.139E+00   -.127E-02 -.629E-03 -.200E-02   0.441E-04 0.625E-04 0.932E-04
   0.520E-01 0.484E-01 0.139E+00   -.519E-01 -.487E-01 -.139E+00   -.817E-03 0.362E-03 0.196E-02   0.422E-05 -.126E-04 0.463E-04
   -.117E+00 0.338E-03 0.639E-03   0.117E+00 -.305E-03 -.681E-03   -.695E-03 -.622E-03 -.200E-03   -.482E-04 0.241E-05 0.982E-04
   -.651E-01 0.536E-01 -.591E-01   0.637E-01 -.522E-01 0.561E-01   0.296E-02 -.195E-02 0.552E-02   -.361E-04 0.554E-05 0.123E-03
   0.134E+00 0.919E-03 -.986E-03   -.135E+00 -.912E-03 0.125E-02   -.176E-03 0.307E-03 -.234E-04   0.681E-04 -.262E-04 0.563E-04
   -.639E-01 -.543E-01 0.599E-01   0.626E-01 0.530E-01 -.572E-01   0.337E-02 0.221E-02 -.638E-02   -.319E-04 -.954E-05 0.485E-04
   0.950E-01 -.233E-02 0.500E-03   -.959E-01 0.240E-02 -.481E-03   0.114E-02 -.371E-03 -.417E-03   0.193E-05 -.141E-04 -.909E-04
   -.420E-01 0.156E+00 -.127E-01   0.431E-01 -.157E+00 0.124E-01   -.117E-02 0.109E-02 0.418E-04   0.218E-04 0.411E-04 -.952E-04
   -.421E-01 -.154E+00 0.124E-01   0.430E-01 0.155E+00 -.120E-01   -.169E-02 -.619E-03 -.177E-03   -.236E-04 -.959E-05 -.742E-04
   -.685E+00 -.937E+00 0.120E+01   0.673E+00 0.930E+00 -.120E+01   0.617E-01 0.309E-01 -.408E-01   0.298E-04 -.287E-04 -.737E-05
   -.676E+00 0.967E+00 -.124E+01   0.662E+00 -.958E+00 0.123E+01   0.693E-01 -.366E-01 0.482E-01   -.353E-04 -.335E-04 0.155E-04
   -.310E+00 0.861E-03 -.131E-02   0.313E+00 -.105E-02 0.122E-02   -.293E-02 -.278E-03 -.121E-03   0.581E-05 -.760E-04 0.437E-04
   -.271E+00 0.209E+00 0.122E+00   0.269E+00 -.208E+00 -.120E+00   0.241E-02 -.690E-03 -.220E-02   -.364E-04 0.403E-04 -.544E-04
   0.967E+00 0.169E-01 0.111E-01   -.967E+00 -.170E-01 -.109E-01   0.706E-02 -.590E-03 -.501E-03   0.432E-04 0.987E-05 -.647E-04
   -.272E+00 -.214E+00 -.125E+00   0.270E+00 0.213E+00 0.123E+00   0.353E-02 0.143E-02 0.164E-02   -.690E-05 0.712E-04 -.819E-05
   -.271E+00 -.209E+00 -.122E+00   0.269E+00 0.208E+00 0.120E+00   0.241E-02 0.690E-03 0.220E-02   -.364E-04 -.403E-04 0.544E-04
   0.967E+00 -.169E-01 -.111E-01   -.967E+00 0.170E-01 0.109E-01   0.706E-02 0.590E-03 0.501E-03   0.432E-04 -.987E-05 0.647E-04
   -.272E+00 0.214E+00 0.125E+00   0.270E+00 -.213E+00 -.123E+00   0.353E-02 -.143E-02 -.164E-02   -.690E-05 -.712E-04 0.819E-05
   -.310E+00 -.861E-03 0.131E-02   0.313E+00 0.105E-02 -.122E-02   -.293E-02 0.278E-03 0.121E-03   0.581E-05 0.760E-04 -.437E-04
   -.685E+00 0.937E+00 -.120E+01   0.673E+00 -.930E+00 0.120E+01   0.617E-01 -.309E-01 0.408E-01   0.298E-04 0.287E-04 0.737E-05
   -.676E+00 -.967E+00 0.124E+01   0.662E+00 0.958E+00 -.123E+01   0.693E-01 0.366E-01 -.482E-01   -.353E-04 0.335E-04 -.155E-04
   -.420E-01 -.156E+00 0.127E-01   0.431E-01 0.157E+00 -.124E-01   -.117E-02 -.109E-02 -.418E-04   0.218E-04 -.411E-04 0.952E-04
   -.421E-01 0.154E+00 -.124E-01   0.430E-01 -.155E+00 0.120E-01   -.169E-02 0.619E-03 0.177E-03   -.236E-04 0.959E-05 0.742E-04
   0.950E-01 0.233E-02 -.500E-03   -.959E-01 -.240E-02 0.481E-03   0.114E-02 0.371E-03 0.417E-03   0.193E-05 0.141E-04 0.909E-04
   -.651E-01 -.536E-01 0.591E-01   0.637E-01 0.522E-01 -.561E-01   0.296E-02 0.195E-02 -.552E-02   -.361E-04 -.554E-05 -.123E-03
   0.134E+00 -.919E-03 0.986E-03   -.135E+00 0.912E-03 -.125E-02   -.176E-03 -.307E-03 0.234E-04   0.681E-04 0.262E-04 -.563E-04
   -.639E-01 0.543E-01 -.599E-01   0.626E-01 -.530E-01 0.572E-01   0.337E-02 -.221E-02 0.638E-02   -.319E-04 0.954E-05 -.485E-04
   -.117E+00 -.338E-03 -.639E-03   0.117E+00 0.305E-03 0.681E-03   -.695E-03 0.622E-03 0.200E-03   -.482E-04 -.241E-05 -.982E-04
   0.484E-01 0.486E-01 0.139E+00   -.484E-01 -.489E-01 -.139E+00   -.127E-02 0.629E-03 0.200E-02   0.441E-04 -.625E-04 -.932E-04
   0.520E-01 -.484E-01 -.139E+00   -.519E-01 0.487E-01 0.139E+00   -.817E-03 -.362E-03 -.196E-02   0.422E-05 0.126E-04 -.463E-04
   -.150E-01 -.595E-01 -.885E-02   0.136E-01 0.598E-01 0.813E-02   0.206E-02 -.156E-02 0.177E-02   -.345E-04 -.607E-04 -.634E-04
   -.151E-01 0.587E-01 0.874E-02   0.137E-01 -.591E-01 -.794E-02   0.112E-02 0.109E-02 -.161E-02   -.537E-04 0.694E-04 -.365E-04
   0.289E-01 0.707E-03 0.332E-03   -.279E-01 -.712E-03 -.203E-03   -.428E-03 0.279E-03 0.398E-03   0.881E-04 0.124E-04 -.509E-04
 -----------------------------------------------------------------------------------------------
   -.146E+00 0.164E-07 -.361E-07   0.699E-14 -.150E-12 -.127E-12   0.145E+00 -.168E-17 -.596E-18   0.819E-06 0.870E-10 0.290E-10


 POSITION                                       TOTAL-FORCE (eV/Angst)
 -----------------------------------------------------------------------------------
      3.66674      6.35098      0.00000        -0.001064     -0.002440      0.000138
     -3.66674      6.35098      0.00000        -0.000676      0.001659     -0.000156
     -0.00000      6.35098      0.00000         0.001503     -0.000019     -0.000567
      7.33348      0.00000      0.00000        -0.004566      0.000000     -0.000000
      0.03300      0.00000      0.00000        -0.211580      0.000000     -0.000000
      3.66674      0.00000      0.00000        -0.004291      0.000000     -0.000000
      5.50011      3.17549      0.00000         0.001503      0.000019      0.000567
     -1.83337      3.17549      0.00000        -0.001064      0.002440     -0.000138
      1.83337      3.17549      0.00000        -0.000676     -0.001659      0.000156
      3.66674      6.35098      5.50764        -0.000121     -0.000043      0.000999
     -3.66674      6.35098      5.50764         0.000433     -0.000821     -0.001011
     -0.00000      6.35098      5.50764        -0.002433     -0.000004     -0.000410
      7.33348      0.00000      5.50764         0.000330      0.000000     -0.000000
      0.00000      0.00000      5.50764        -0.000631      0.000000     -0.000000
      3.66674      0.00000      5.50764         0.001328      0.000000     -0.000000
      5.50011      3.17549      5.50764        -0.002433      0.000004      0.000410
     -1.83337      3.17549      5.50764        -0.000121      0.000043     -0.000999
      1.83337      3.17549      5.50764         0.000433      0.000821      0.001011
      3.66674      6.35098      8.26145         0.000148      0.002238      0.000715
     -3.66674      6.35098      8.26145        -0.001219     -0.000011     -0.000781
     -0.00000      6.35098      8.26145         0.000146     -0.000018     -0.000706
      7.33348      0.00000      8.26145         0.002977      0.000264      0.000446
      0.00000      0.00000      8.26145        -0.003360     -0.000060      0.000383
      3.66674      0.00000      8.26145         0.000366     -0.000029     -0.000522
      5.50011      3.17549      8.26145         0.000144      0.000017      0.000613
     -1.83337      3.17549      8.26145         0.000104     -0.002631     -0.000247
      1.83337      3.17549      8.26145        -0.001171      0.000212      0.000291
      3.66674      6.35098      2.75382         0.000104      0.002631      0.000247
     -3.66674      6.35098      2.75382        -0.001171     -0.000212     -0.000291
     -0.00000      6.35098      2.75382         0.000144     -0.000017     -0.000613
      7.33348      0.00000      2.75382         0.002977     -0.000264     -0.000446
      0.00000      0.00000      2.75382        -0.003360      0.000060     -0.000383
      3.66674      0.00000      2.75382         0.000366      0.000029      0.000522
      5.50011      3.17549      2.75382         0.000146      0.000018      0.000706
     -1.83337      3.17549      2.75382         0.000148     -0.002238     -0.000715
      1.83337      3.17549      2.75382        -0.001219      0.000011      0.000781
      5.50011      5.29248      6.88455         0.000613     -0.000286     -0.000477
     -1.83337      5.29248      6.88455         0.000630      0.001275     -0.000994
      1.83337      5.29248      6.88455        -0.000355     -0.000720      0.000851
      3.66674      8.46797      6.88455        -0.001198     -0.000302     -0.001892
     -3.66674      8.46797      6.88455        -0.000688      0.000052      0.002361
     -0.00000      8.46797      6.88455        -0.001575     -0.000586     -0.000144
      7.33348      2.11699      6.88455         0.001591     -0.000590      0.002643
     -0.00000      2.11699      6.88455        -0.000622      0.000288      0.000296
      3.66674      2.11699      6.88455         0.002123      0.000862     -0.003640
      5.50011      5.29248      1.37691         0.000316     -0.000314     -0.000488
     -1.83337      5.29248      1.37691         0.000004      0.000071     -0.000291
      1.83337      5.29248      1.37691        -0.000863      0.000501      0.000105
      3.66674      8.46797      1.37691         0.049604      0.023856     -0.039042
     -3.66674      8.46797      1.37691         0.055245     -0.027663      0.044700
     -0.00000      8.46797      1.37691        -0.000067     -0.000539     -0.000165
      7.33348      2.11699      1.37691         0.000232      0.000044     -0.000585
     -0.00000      2.11699      1.37691         0.007876     -0.000748     -0.000396
      3.66674      2.11699      1.37691         0.001064      0.000423     -0.000312
      1.83337      7.40947      9.63836         0.000232     -0.000044      0.000585
      5.50011      7.40947      9.63836         0.007876      0.000748      0.000396
     -1.83337      7.40947      9.63836         0.001064     -0.000423      0.000312
      5.50011      1.05850      9.63836        -0.000067      0.000539      0.000165
      9.16685      1.05850      9.63836         0.049604     -0.023856      0.039042
      1.83337      1.05850      9.63836         0.055245      0.027663     -0.044700
      3.66674      4.23399      9.63836         0.000004     -0.000071      0.000291
      7.33348      4.23399      9.63836        -0.000863     -0.000501     -0.000105
     -0.00000      4.23399      9.63836         0.000316      0.000314      0.000488
      1.83337      7.40947      4.13073         0.001591      0.000590     -0.002643
      5.50011      7.40947      4.13073        -0.000622     -0.000288     -0.000296
     -1.83337      7.40947      4.13073         0.002123     -0.000862      0.003640
      5.50011      1.05850      4.13073        -0.001575      0.000586      0.000144
      9.16685      1.05850      4.13073        -0.001198      0.000302      0.001892
      1.83337      1.05850      4.13073        -0.000688     -0.000052     -0.002361
      3.66674      4.23399      4.13073         0.000630     -0.001275      0.000994
      7.33348      4.23399      4.13073        -0.000355      0.000720     -0.000851
     -0.00000      4.23399      4.13073         0.000613      0.000286      0.000477
 -----------------------------------------------------------------------------------
    total drift:                               -0.001121      0.000000     -0.000000


--------------------------------------------------------------------------------------------------------



  FREE ENERGIE OF THE ION-ELECTRON SYSTEM (eV)
  ---------------------------------------------------
  free  energy   TOTEN  =      -509.78422672 eV

  energy  without entropy=     -509.79841525  energy(sigma->0) =     -509.78895623



--------------------------------------------------------------------------------------------------------


    POTLOK:  cpu time    3.5840: real time    3.6106


--------------------------------------------------------------------------------------------------------


     LOOP+:  cpu time41333.3000: real time41703.8880
    4ORBIT:  cpu time    0.0000: real time    0.0000

 total amount of memory used by VASP on root node   334145. kBytes
========================================================================

   base      :      30000. kBytes
   nonlr-proj:      20526. kBytes
   fftplans  :      28296. kBytes
   grid      :      21369. kBytes
   one-center:        559. kBytes
   wavefun   :     233395. kBytes

  
  
 General timing and accounting informations for this job:
 ========================================================
  
                  Total CPU time used (sec):    41484.727
                            User time (sec):    41342.080
                          System time (sec):      142.648
                         Elapsed time (sec):    41856.464
  
                   Maximum memory used (kb):      386612.
                   Average memory used (kb):           0.
  
                          Minor page faults:        95261
                          Major page faults:            5
                 Voluntary context switches:          604
