 vasp.5.4.1 24Jun15 (build Oct  9 2015 14:58:31) complex                         
 executed on           IFC91_ompi date 2017.05.25  07:06:25
 running on   16 total cores
 distrk:  each k-point on   16 cores,    1 groups
 distr:  one band on NCORES_PER_BAND=   4 cores,    4 groups


--------------------------------------------------------------------------------------------------------


 INCAR:
 POTCAR:   PAW_PBE Mn 06Sep2000                   
 POTCAR:   PAW_PBE As 06Sep2000                   
 POTCAR:   PAW_PBE Mn 06Sep2000                   
   VRHFIN =Mn: d6 s1                                                            
   LEXCH  = PE                                                                  
   EATOM  =   416.8732 eV,   30.6393 Ry                                         
                                                                                
   TITEL  = PAW_PBE Mn 06Sep2000                                                
   LULTRA =        F    use ultrasoft PP ?                                      
   IUNSCR =        1    unscreen: 0-lin 1-nonlin 2-no                           
   RPACOR =    2.000    partial core radius                                     
   POMASS =   54.938; ZVAL   =    7.000    mass and valenz                      
   RCORE  =    2.300    outmost cutoff radius                                   
   RWIGS  =    2.500; RWIGS  =    1.323    wigner-seitz radius (au A)           
   ENMAX  =  269.865; ENMIN  =  202.399 eV                                      
   RCLOC  =    1.725    cutoff for local pot                                    
   LCOR   =        T    correct aug charges                                     
   LPAW   =        T    paw PP                                                  
   EAUG   =  500.711                                                            
   DEXC   =    -.071                                                            
   RMAX   =    2.807    core radius for proj-oper                               
   RAUG   =    1.300    factor for augmentation sphere                          
   RDEP   =    2.338    radius for radial grids                                 
   QCUT   =   -4.454; QGAM   =    8.907    optimization parameters              
                                                                                
   Description                                                                  
     l     E      TYP  RCUT    TYP  RCUT                                        
     2   .000     23  2.300                                                     
     2   .000     23  2.300                                                     
     0   .000     23  2.300                                                     
     0   .000     23  2.300                                                     
     1  -.200     23  2.300                                                     
     1  1.500     23  2.300                                                     
     3   .000      7   .000                                                     
  local pseudopotential read in
  partial core-charges read in
  atomic valenz-charges read in
  non local Contribution for L=           2  read in
    real space projection operators read in
  non local Contribution for L=           2  read in
    real space projection operators read in
  non local Contribution for L=           0  read in
    real space projection operators read in
  non local Contribution for L=           0  read in
    real space projection operators read in
  non local Contribution for L=           1  read in
    real space projection operators read in
  non local Contribution for L=           1  read in
    real space projection operators read in
    PAW grid and wavefunctions read in

   number of l-projection  operators is LMAX  =           6
   number of lm-projection operators is LMMAX =          18

 POTCAR:   PAW_PBE As 06Sep2000                   
   VRHFIN =As: s2p3                                                             
   LEXCH  = PE                                                                  
   EATOM  =   170.0753 eV,   12.5002 Ry                                         
                                                                                
   TITEL  = PAW_PBE As 06Sep2000                                                
   LULTRA =        F    use ultrasoft PP ?                                      
   IUNSCR =        1    unscreen: 0-lin 1-nonlin 2-no                           
   RPACOR =    1.900    partial core radius                                     
   POMASS =   74.922; ZVAL   =    5.000    mass and valenz                      
   RCORE  =    2.100    outmost cutoff radius                                   
   RWIGS  =    2.300; RWIGS  =    1.217    wigner-seitz radius (au A)           
   ENMAX  =  208.680; ENMIN  =  156.510 eV                                      
   ICORE  =        3    local potential                                         
   LCOR   =        T    correct aug charges                                     
   LPAW   =        T    paw PP                                                  
   EAUG   =  462.758                                                            
   DEXC   =    -.108                                                            
   RMAX   =    3.192    core radius for proj-oper                               
   RAUG   =    1.300    factor for augmentation sphere                          
   RDEP   =    2.140    radius for radial grids                                 
   QCUT   =   -3.916; QGAM   =    7.833    optimization parameters              
                                                                                
   Description                                                                  
     l     E      TYP  RCUT    TYP  RCUT                                        
     0   .000     23  2.100                                                     
     0   .000     23  2.100                                                     
     1   .000     23  2.100                                                     
     1   .000     23  2.100                                                     
     2   .000     23  2.100                                                     
     3  -.100      7  2.100                                                     
  local pseudopotential read in
  partial core-charges read in
  atomic valenz-charges read in
  non local Contribution for L=           0  read in
    real space projection operators read in
  non local Contribution for L=           0  read in
    real space projection operators read in
  non local Contribution for L=           1  read in
    real space projection operators read in
  non local Contribution for L=           1  read in
    real space projection operators read in
  non local Contribution for L=           2  read in
    real space projection operators read in
    PAW grid and wavefunctions read in

   number of l-projection  operators is LMAX  =           5
   number of lm-projection operators is LMMAX =          13

 PAW_PBE Mn 06Sep2000                   :
 energy of atom  1       EATOM= -416.8732
 kinetic energy error for atom=    0.0239 (will be added to EATOM!!)
 PAW_PBE As 06Sep2000                   :
 energy of atom  2       EATOM= -170.0753
 kinetic energy error for atom=    0.0021 (will be added to EATOM!!)


 POSCAR: For VASP. System=    MnAs_hex           
  positions in direct lattice
  No initial velocities read in
 exchange correlation table for  LEXCH =        8
   RHO(1)=    0.500       N(1)  =     2000
   RHO(2)=  100.500       N(2)  =     4000



--------------------------------------------------------------------------------------------------------


 ion  position               nearest neighbor table
   1  0.667  0.667  0.000-  56 2.53  55 2.53  46 2.53  49 2.53  48 2.53  61 2.53  19 2.75  28 2.75

   2  0.000  0.667  0.000-  56 2.53  46 2.53  57 2.53  47 2.53  50 2.53  62 2.53  20 2.75  29 2.75

   3  0.333  0.667  0.000-  57 2.53  47 2.53  51 2.53  55 2.53  48 2.53  63 2.53  21 2.75  30 2.75

   4  0.667  0.000  0.000-  49 2.53  59 2.53  58 2.53  52 2.53  55 2.53  51 2.53  22 2.75  31 2.75

   5  0.018  0.000  0.000-  50 2.39  60 2.39  56 2.53  53 2.53  59 2.67  49 2.67  23 2.76  32 2.76

   6  0.333  0.000  0.000-  60 2.53  50 2.53  51 2.53  57 2.53  54 2.53  58 2.53  24 2.75  33 2.75

   7  0.667  0.333  0.000-  52 2.53  62 2.53  58 2.53  54 2.53  61 2.53  46 2.53  25 2.75  34 2.75

   8  0.000  0.333  0.000-  53 2.53  52 2.53  63 2.53  62 2.53  59 2.53  47 2.53  26 2.75  35 2.75

   9  0.333  0.333  0.000-  53 2.53  54 2.53  63 2.53  60 2.53  61 2.53  48 2.53  27 2.75  36 2.75

  10  0.667  0.667  0.500-  65 2.53  64 2.53  37 2.53  40 2.53  39 2.53  70 2.53  19 2.75  28 2.75

  11  0.000  0.667  0.500-  65 2.53  37 2.53  66 2.53  38 2.53  41 2.53  71 2.53  20 2.75  29 2.75

  12  0.333  0.667  0.500-  66 2.53  38 2.53  42 2.53  64 2.53  39 2.53  72 2.53  21 2.75  30 2.75

  13  0.667  0.000  0.500-  40 2.53  68 2.53  67 2.53  43 2.53  64 2.53  42 2.53  22 2.75  31 2.75

  14  0.000  0.000  0.500-  41 2.53  68 2.53  40 2.53  69 2.53  44 2.53  65 2.53  23 2.75  32 2.75

  15  0.333  0.000  0.500-  69 2.53  41 2.53  42 2.53  66 2.53  45 2.53  67 2.53  24 2.75  33 2.75

  16  0.667  0.333  0.500-  43 2.53  71 2.53  67 2.53  45 2.53  70 2.53  37 2.53  25 2.75  34 2.75

  17  0.000  0.333  0.500-  44 2.53  43 2.53  72 2.53  71 2.53  68 2.53  38 2.53  26 2.75  35 2.75

  18  0.333  0.333  0.500-  44 2.53  45 2.53  72 2.53  69 2.53  70 2.53  39 2.53  27 2.75  36 2.75

  19  0.667  0.667  0.750-  56 2.53  55 2.53  37 2.53  40 2.53  39 2.53  61 2.53   1 2.75  10 2.75

  20  0.000  0.667  0.750-  56 2.53  37 2.53  57 2.53  38 2.53  41 2.53  62 2.53   2 2.75  11 2.75

  21  0.333  0.667  0.750-  57 2.53  38 2.53  42 2.53  55 2.53  39 2.53  63 2.53   3 2.75  12 2.75

  22  0.667  0.000  0.750-  40 2.53  59 2.53  58 2.53  43 2.53  55 2.53  42 2.53   4 2.75  13 2.75

  23  0.000  0.000  0.750-  41 2.53  59 2.53  40 2.53  60 2.53  44 2.53  56 2.53  14 2.75   5 2.76

  24  0.333  0.000  0.750-  60 2.53  41 2.53  42 2.53  57 2.53  45 2.53  58 2.53   6 2.75  15 2.75

  25  0.667  0.333  0.750-  43 2.53  62 2.53  58 2.53  45 2.53  61 2.53  37 2.53   7 2.75  16 2.75

  26  0.000  0.333  0.750-  44 2.53  43 2.53  63 2.53  62 2.53  59 2.53  38 2.53   8 2.75  17 2.75

  27  0.333  0.333  0.750-  44 2.53  45 2.53  63 2.53  60 2.53  61 2.53  39 2.53   9 2.75  18 2.75

  28  0.667  0.667  0.250-  65 2.53  64 2.53  46 2.53  49 2.53  48 2.53  70 2.53   1 2.75  10 2.75

  29  0.000  0.667  0.250-  65 2.53  46 2.53  66 2.53  47 2.53  50 2.53  71 2.53   2 2.75  11 2.75

  30  0.333  0.667  0.250-  66 2.53  47 2.53  51 2.53  64 2.53  48 2.53  72 2.53   3 2.75  12 2.75

  31  0.667  0.000  0.250-  49 2.53  68 2.53  67 2.53  52 2.53  64 2.53  51 2.53   4 2.75  13 2.75

  32  0.000  0.000  0.250-  50 2.53  68 2.53  49 2.53  69 2.53  53 2.53  65 2.53  14 2.75   5 2.76

  33  0.333  0.000  0.250-  69 2.53  50 2.53  51 2.53  66 2.53  54 2.53  67 2.53   6 2.75  15 2.75

  34  0.667  0.333  0.250-  52 2.53  71 2.53  67 2.53  54 2.53  70 2.53  46 2.53   7 2.75  16 2.75

  35  0.000  0.333  0.250-  53 2.53  52 2.53  72 2.53  71 2.53  68 2.53  47 2.53   8 2.75  17 2.75

  36  0.333  0.333  0.250-  53 2.53  54 2.53  72 2.53  69 2.53  70 2.53  48 2.53   9 2.75  18 2.75

  37  0.778  0.556  0.625-  11 2.53  20 2.53  19 2.53  10 2.53  16 2.53  25 2.53
  38  0.111  0.556  0.625-  12 2.53  21 2.53  20 2.53  11 2.53  17 2.53  26 2.53
  39  0.444  0.556  0.625-  10 2.53  19 2.53  12 2.53  21 2.53  18 2.53  27 2.53
  40  0.778  0.889  0.625-  13 2.53  22 2.53  14 2.53  23 2.53  10 2.53  19 2.53
  41  0.111  0.889  0.625-  14 2.53  23 2.53  15 2.53  24 2.53  11 2.53  20 2.53
  42  0.444  0.889  0.625-  15 2.53  24 2.53  21 2.53  12 2.53  22 2.53  13 2.53
  43  0.778  0.222  0.625-  16 2.53  25 2.53  17 2.53  26 2.53  13 2.53  22 2.53
  44  0.111  0.222  0.625-  17 2.53  26 2.53  18 2.53  27 2.53  14 2.53  23 2.53
  45  0.444  0.222  0.625-  18 2.53  27 2.53  24 2.53  15 2.53  25 2.53  16 2.53
  46  0.778  0.556  0.125-   2 2.53  29 2.53  28 2.53   1 2.53   7 2.53  34 2.53
  47  0.111  0.556  0.125-   3 2.53  30 2.53  29 2.53   2 2.53   8 2.53  35 2.53
  48  0.444  0.556  0.125-   1 2.53  28 2.53   3 2.53  30 2.53   9 2.53  36 2.53
  49  0.778  0.889  0.125-   4 2.53  31 2.53  32 2.53   1 2.53  28 2.53   5 2.67
  50  0.111  0.889  0.125-   5 2.39  32 2.53   6 2.53  33 2.53   2 2.53  29 2.53
  51  0.444  0.889  0.125-   6 2.53  33 2.53  30 2.53   3 2.53  31 2.53   4 2.53
  52  0.778  0.222  0.125-   7 2.53  34 2.53   8 2.53  35 2.53   4 2.53  31 2.53
  53  0.111  0.222  0.125-   8 2.53  35 2.53   9 2.53  36 2.53  32 2.53   5 2.53
  54  0.444  0.222  0.125-   9 2.53  36 2.53  33 2.53   6 2.53  34 2.53   7 2.53
  55  0.556  0.778  0.875-   1 2.53  19 2.53   4 2.53  22 2.53  21 2.53   3 2.53
  56  0.889  0.778  0.875-   2 2.53  20 2.53  19 2.53   1 2.53  23 2.53   5 2.53
  57  0.222  0.778  0.875-   3 2.53  21 2.53  20 2.53   2 2.53   6 2.53  24 2.53
  58  0.556  0.111  0.875-   4 2.53  22 2.53   7 2.53  25 2.53  24 2.53   6 2.53
  59  0.889  0.111  0.875-  23 2.53  22 2.53   4 2.53   8 2.53  26 2.53   5 2.67
  60  0.222  0.111  0.875-   5 2.39   6 2.53  24 2.53  23 2.53   9 2.53  27 2.53
  61  0.556  0.444  0.875-   9 2.53  27 2.53  25 2.53   7 2.53   1 2.53  19 2.53
  62  0.889  0.444  0.875-   7 2.53  25 2.53   8 2.53  26 2.53   2 2.53  20 2.53
  63  0.222  0.444  0.875-   8 2.53  26 2.53   9 2.53  27 2.53   3 2.53  21 2.53
  64  0.556  0.778  0.375-  10 2.53  28 2.53  13 2.53  31 2.53  30 2.53  12 2.53
  65  0.889  0.778  0.375-  11 2.53  29 2.53  28 2.53  10 2.53  14 2.53  32 2.53
  66  0.222  0.778  0.375-  12 2.53  30 2.53  29 2.53  11 2.53  15 2.53  33 2.53
  67  0.556  0.111  0.375-  13 2.53  31 2.53  16 2.53  34 2.53  33 2.53  15 2.53
  68  0.889  0.111  0.375-  14 2.53  32 2.53  31 2.53  13 2.53  17 2.53  35 2.53
  69  0.222  0.111  0.375-  15 2.53  33 2.53  32 2.53  14 2.53  18 2.53  36 2.53
  70  0.556  0.444  0.375-  18 2.53  36 2.53  34 2.53  16 2.53  10 2.53  28 2.53
  71  0.889  0.444  0.375-  16 2.53  34 2.53  17 2.53  35 2.53  11 2.53  29 2.53
  72  0.222  0.444  0.375-  17 2.53  35 2.53  18 2.53  36 2.53  12 2.53  30 2.53

  LATTYP: Found a hexagonal cell.
 ALAT       =    11.0002171438
 C/A-ratio  =     1.0013686964
  
  Lattice vectors:
  
 A1 = (  11.0002171438,   0.0000000000,   0.0000000000)
 A2 = (  -5.5001085719,   9.5264674936,   0.0000000000)
 A3 = (   0.0000000000,   0.0000000000,  11.0152731015)


Analysis of symmetry for initial positions (statically):
=====================================================================
 Subroutine PRICEL returns:
 Original cell was already a primitive cell.
 

 Routine SETGRP: Setting up the symmetry group for a 
 hexagonal supercell.


 Subroutine GETGRP returns: Found  2 space group operations
 (whereof  2 operations were pure point group operations)
 out of a pool of 24 trial point group operations.


The static configuration has the point symmetry C_2 .


Analysis of symmetry for dynamics (positions and initial velocities):
=====================================================================
 Subroutine PRICEL returns:
 Original cell was already a primitive cell.
 

 Routine SETGRP: Setting up the symmetry group for a 
 hexagonal supercell.


 Subroutine GETGRP returns: Found  2 space group operations
 (whereof  2 operations were pure point group operations)
 out of a pool of 24 trial point group operations.


The dynamic configuration has the point symmetry C_2 .


Analysis of structural, dynamic, and magnetic symmetry:
=====================================================================
 Subroutine PRICEL returns:
 Original cell was already a primitive cell.
 

 Routine SETGRP: Setting up the symmetry group for a 
 hexagonal supercell.


 Subroutine GETGRP returns: Found  2 space group operations
 (whereof  2 operations were pure point group operations)
 out of a pool of 24 trial point group operations.


The magnetic configuration has the point symmetry C_2 .


 Subroutine INISYM returns: Found  2 space group operations
 (whereof  2 operations are pure point group operations),
 and found     1 'primitive' translations



 KPOINTS: Automatic mesh                          

Automatic generation of k-mesh.
Space group operators:
 irot       det(A)        alpha          n_x          n_y          n_z        tau_x        tau_y        tau_z
    1     1.000000     0.000000     1.000000     0.000000     0.000000     0.000000     0.000000     0.000000
    2     1.000000   180.000000     1.000000     0.000000     0.000000     0.000000     0.000000     0.000000
 
 Subroutine IBZKPT returns following result:
 ===========================================
 
 Found     24 irreducible k-points:
 
 Following reciprocal coordinates:
            Coordinates               Weight
  0.000000  0.000000  0.000000      1.000000
  0.250000  0.000000  0.000000      4.000000
  0.500000  0.000000  0.000000      2.000000
  0.000000  0.250000  0.000000      2.000000
  0.250000  0.250000  0.000000      4.000000
  0.500000  0.250000  0.000000      2.000000
  0.000000  0.500000  0.000000      1.000000
  0.000000  0.000000  0.250000      2.000000
  0.250000  0.000000  0.250000      4.000000
  0.500000  0.000000  0.250000      4.000000
 -0.250000  0.000000  0.250000      4.000000
  0.000000  0.250000  0.250000      2.000000
  0.250000  0.250000  0.250000      4.000000
  0.500000  0.250000  0.250000      4.000000
  0.000000  0.500000  0.250000      2.000000
  0.250000  0.500000  0.250000      4.000000
  0.000000 -0.250000  0.250000      2.000000
  0.000000  0.000000  0.500000      1.000000
  0.250000  0.000000  0.500000      4.000000
  0.500000  0.000000  0.500000      2.000000
  0.000000  0.250000  0.500000      2.000000
  0.250000  0.250000  0.500000      4.000000
  0.500000  0.250000  0.500000      2.000000
  0.000000  0.500000  0.500000      1.000000
 
 Following cartesian coordinates:
            Coordinates               Weight
  0.000000  0.000000  0.000000      1.000000
  0.022727  0.013121  0.000000      4.000000
  0.045454  0.026243  0.000000      2.000000
  0.000000  0.026243  0.000000      2.000000
  0.022727  0.039364  0.000000      4.000000
  0.045454  0.052485  0.000000      2.000000
  0.000000  0.052485  0.000000      1.000000
  0.000000  0.000000  0.022696      2.000000
  0.022727  0.013121  0.022696      4.000000
  0.045454  0.026243  0.022696      4.000000
 -0.022727 -0.013121  0.022696      4.000000
  0.000000  0.026243  0.022696      2.000000
  0.022727  0.039364  0.022696      4.000000
  0.045454  0.052485  0.022696      4.000000
  0.000000  0.052485  0.022696      2.000000
  0.022727  0.065607  0.022696      4.000000
  0.000000 -0.026243  0.022696      2.000000
  0.000000  0.000000  0.045392      1.000000
  0.022727  0.013121  0.045392      4.000000
  0.045454  0.026243  0.045392      2.000000
  0.000000  0.026243  0.045392      2.000000
  0.022727  0.039364  0.045392      4.000000
  0.045454  0.052485  0.045392      2.000000
  0.000000  0.052485  0.045392      1.000000
 


--------------------------------------------------------------------------------------------------------




 Dimension of arrays:
   k-points           NKPTS =     24   k-points in BZ     NKDIM =     24   number of bands    NBANDS=    300
   number of dos      NEDOS =    301   number of ions     NIONS =     72
   non local maximal  LDIM  =      6   non local SUM 2l+1 LMDIM =     18
   total plane-waves  NPLWV = 343000
   max r-space proj   IRMAX =   6047   max aug-charges    IRDMAX=  98554
   dimension x,y,z NGX =    70 NGY =   70 NGZ =   70
   dimension x,y,z NGXF=   140 NGYF=  140 NGZF=  140
   support grid    NGXF=   280 NGYF=  280 NGZF=  280
   ions per type =              36  36
 NGX,Y,Z   is equivalent  to a cutoff of  10.58, 10.58, 10.56 a.u.
 NGXF,Y,Z  is equivalent  to a cutoff of  21.16, 21.16, 21.13 a.u.


 I would recommend the setting:
   dimension x,y,z NGX =    64 NGY =   64 NGZ =   64
 SYSTEM =  MnAs hex                                
 POSCAR =  For VASP. System=    MnAs_hex           

 Startparameter for this run:
   NWRITE =      2    write-flag & timer
   PREC   = accura    normal or accurate (medium, high low for compatibility)
   ISTART =      0    job   : 0-new  1-cont  2-samecut
   ICHARG =      2    charge: 1-file 2-atom 10-const
   ISPIN  =      2    spin polarized calculation?
   LNONCOLLINEAR =      F non collinear calculations
   LSORBIT =      F    spin-orbit coupling
   INIWAV =      1    electr: 0-lowe 1-rand  2-diag
   LASPH  =      F    aspherical Exc in radial PAW
   METAGGA=      F    non-selfconsistent MetaGGA calc.

 Electronic Relaxation 1
   ENCUT  =  320.0 eV  23.52 Ry    4.85 a.u.  16.04 16.04 16.07*2*pi/ulx,y,z
   ENINI  =  320.0     initial cutoff
   ENAUG  =  500.7 eV  augmentation charge cutoff
   NELM   =    200;   NELMIN=  2; NELMDL=  0     # of ELM steps 
   EDIFF  = 0.1E-06   stopping-criterion for ELM
   LREAL  =      T    real-space projection
   NLSPLINE    = F    spline interpolate recip. space projectors
   LCOMPAT=      F    compatible to vasp.4.4
   GGA_COMPAT  = T    GGA compatible to vasp.4.4-vasp.4.6
   LMAXPAW     = -100 max onsite density
   LMAXMIX     =    2 max onsite mixed and CHGCAR
   VOSKOWN=      0    Vosko Wilk Nusair interpolation
   ROPT   =    0.00000   0.00000
 Ionic relaxation
   EDIFFG = 0.1E-05   stopping-criterion for IOM
   NSW    =      0    number of steps for IOM
   NBLOCK =      1;   KBLOCK =      1    inner block; outer block 
   IBRION =     -1    ionic relax: 0-MD 1-quasi-New 2-CG
   NFREE  =      1    steps in history (QN), initial steepest desc. (CG)
   ISIF   =      6    stress and relaxation
   IWAVPR =     10    prediction:  0-non 1-charg 2-wave 3-comb
   ISYM   =      2    0-nonsym 1-usesym 2-fastsym
   LCORR  =      T    Harris-Foulkes like correction to forces

   POTIM  = 0.5000    time-step for ionic-motion
   TEIN   =    0.0    initial temperature
   TEBEG  =    0.0;   TEEND  =   0.0 temperature during run
   SMASS  =  -3.00    Nose mass-parameter (am)
   estimated Nose-frequenzy (Omega)   =  0.10E-29 period in steps =****** mass=  -0.277E-26a.u.
   SCALEE = 1.0000    scale energy and forces
   NPACO  =    256;   APACO  = 16.0  distance and # of slots for P.C.
   PSTRESS=    0.0 pullay stress

  Mass of Ions in am
   POMASS =  54.94 74.92
  Ionic Valenz
   ZVAL   =   7.00  5.00
  Atomic Wigner-Seitz radii
   RWIGS  =  -1.00 -1.00
  virtual crystal weights 
   VCA    =   1.00  1.00
   NELECT =     432.0000    total number of electrons
   NUPDOWN=      -1.0000    fix difference up-down

 DOS related values:
   EMIN   =  10.00;   EMAX   =-10.00  energy-range for DOS
   EFERMI =   0.00
   ISMEAR =     1;   SIGMA  =   0.20  broadening in eV -4-tet -1-fermi 0-gaus

 Electronic relaxation 2 (details)
   IALGO  =     38    algorithm
   LDIAG  =      T    sub-space diagonalisation (order eigenvalues)
   LSUBROT=      F    optimize rotation matrix (better conditioning)
   TURBO    =      0    0=normal 1=particle mesh
   IRESTART =      0    0=no restart 2=restart with 2 vectors
   NREBOOT  =      0    no. of reboots
   NMIN     =      0    reboot dimension
   EREF     =   0.00    reference energy to select bands
   IMIX   =      4    mixing-type and parameters
     AMIX     =   0.40;   BMIX     =  1.00
     AMIX_MAG =   1.60;   BMIX_MAG =  1.00
     AMIN     =   0.10
     WC   =   100.;   INIMIX=   1;  MIXPRE=   1;  MAXMIX= -45

 Intra band minimization:
   WEIMIN = 0.0000     energy-eigenvalue tresh-hold
   EBREAK =  0.83E-10  absolut break condition
   DEPER  =   0.30     relativ break condition  

   TIME   =   0.40     timestep for ELM

  volume/ion in A,a.u.               =      16.03       108.19
  Fermi-wavevector in a.u.,A,eV,Ry     =   1.179759  2.229421 18.937012  1.391831
  Thomas-Fermi vector in A             =   2.316064

 Write flags
   LWAVE  =      F    write WAVECAR
   LCHARG =      F    write CHGCAR
   LVTOT  =      F    write LOCPOT, total local potential
   LVHAR  =      F    write LOCPOT, Hartree potential only
   LELF   =      F    write electronic localiz. function (ELF)
   LORBIT =      0    0 simple, 1 ext, 2 COOP (PROOUT)


 Dipole corrections
   LMONO  =      F    monopole corrections only (constant potential shift)
   LDIPOL =      F    correct potential (dipole corrections)
   IDIPOL =      0    1-x, 2-y, 3-z, 4-all directions 
   EPSILON=  1.0000000 bulk dielectric constant

 Exchange correlation treatment:
   GGA     =    --    GGA type
   LEXCH   =     8    internal setting for exchange type
   VOSKOWN=      0    Vosko Wilk Nusair interpolation
   LHFCALC =     F    Hartree Fock is set to
   LHFONE  =     F    Hartree Fock one center treatment
   AEXX    =    0.0000 exact exchange contribution

 Linear response parameters
   LEPSILON=     F    determine dielectric tensor
   LRPA    =     F    only Hartree local field effects (RPA)
   LNABLA  =     F    use nabla operator in PAW spheres
   LVEL    =     F    velocity operator in full k-point grid
   LINTERFAST=   F  fast interpolation
   KINTER  =     0    interpolate to denser k-point grid
   CSHIFT  =0.1000    complex shift for real part using Kramers Kronig
   OMEGAMAX=  -1.0    maximum frequency
   DEG_THRESHOLD= 0.2000000E-02 threshold for treating states as degnerate
   RTIME   =    0.100 relaxation time in fs

 Orbital magnetization related:
   ORBITALMAG=     F  switch on orbital magnetization
   LCHIMAG   =     F  perturbation theory with respect to B field
   DQ        =  0.001000  dq finite difference perturbation B field



--------------------------------------------------------------------------------------------------------


 Static calculation
 charge density and potential will be updated during run
 spin polarized calculation
 Variant of blocked Davidson
 Davidson routine will perform the subspace rotation
 perform sub-space diagonalisation
    after iterative eigenvector-optimisation
 modified Broyden-mixing scheme, WC =      100.0
 initial mixing is a Kerker type mixing with AMIX =  0.4000 and BMIX =      1.0000
 Hartree-type preconditioning will be used
 using additional bands           84
 real space projection scheme for non local part
 use partial core corrections
 calculate Harris-corrections to forces   (improved forces if not selfconsistent)
 use gradient corrections 
 use of overlap-Matrix (Vanderbilt PP)
 Methfessel and Paxton  Order N= 1 SIGMA  =   0.20


--------------------------------------------------------------------------------------------------------


  energy-cutoff  :      320.00
  volume of cell :     1154.33
      direct lattice vectors                 reciprocal lattice vectors
    11.000217144  0.000000000  0.000000000     0.090907296  0.052485352 -0.000000000
    -5.500108572  9.526467494  0.000000000     0.000000000  0.104970704  0.000000000
     0.000000000  0.000000000 11.015273102     0.000000000 -0.000000000  0.090783042

  length of vectors
    11.000217144 11.000217144 11.015273102     0.104970704  0.104970704  0.090783042



 k-points in units of 2pi/SCALE and weight: Automatic mesh                          
   0.00000000  0.00000000  0.00000000       0.016
   0.02272682  0.01312134  0.00000000       0.062
   0.04545365  0.02624268  0.00000000       0.031
   0.00000000  0.02624268  0.00000000       0.031
   0.02272682  0.03936401  0.00000000       0.062
   0.04545365  0.05248535  0.00000000       0.031
   0.00000000  0.05248535  0.00000000       0.016
   0.00000000  0.00000000  0.02269576       0.031
   0.02272682  0.01312134  0.02269576       0.062
   0.04545365  0.02624268  0.02269576       0.062
  -0.02272682 -0.01312134  0.02269576       0.062
   0.00000000  0.02624268  0.02269576       0.031
   0.02272682  0.03936401  0.02269576       0.062
   0.04545365  0.05248535  0.02269576       0.062
   0.00000000  0.05248535  0.02269576       0.031
   0.02272682  0.06560669  0.02269576       0.062
   0.00000000 -0.02624268  0.02269576       0.031
   0.00000000  0.00000000  0.04539152       0.016
   0.02272682  0.01312134  0.04539152       0.062
   0.04545365  0.02624268  0.04539152       0.031
   0.00000000  0.02624268  0.04539152       0.031
   0.02272682  0.03936401  0.04539152       0.062
   0.04545365  0.05248535  0.04539152       0.031
   0.00000000  0.05248535  0.04539152       0.016

 k-points in reciprocal lattice and weights: Automatic mesh                          
   0.00000000  0.00000000  0.00000000       0.016
   0.25000000  0.00000000  0.00000000       0.062
   0.50000000  0.00000000  0.00000000       0.031
   0.00000000  0.25000000  0.00000000       0.031
   0.25000000  0.25000000  0.00000000       0.062
   0.50000000  0.25000000  0.00000000       0.031
   0.00000000  0.50000000  0.00000000       0.016
   0.00000000  0.00000000  0.25000000       0.031
   0.25000000  0.00000000  0.25000000       0.062
   0.50000000  0.00000000  0.25000000       0.062
  -0.25000000  0.00000000  0.25000000       0.062
   0.00000000  0.25000000  0.25000000       0.031
   0.25000000  0.25000000  0.25000000       0.062
   0.50000000  0.25000000  0.25000000       0.062
   0.00000000  0.50000000  0.25000000       0.031
   0.25000000  0.50000000  0.25000000       0.062
   0.00000000 -0.25000000  0.25000000       0.031
   0.00000000  0.00000000  0.50000000       0.016
   0.25000000  0.00000000  0.50000000       0.062
   0.50000000  0.00000000  0.50000000       0.031
   0.00000000  0.25000000  0.50000000       0.031
   0.25000000  0.25000000  0.50000000       0.062
   0.50000000  0.25000000  0.50000000       0.031
   0.00000000  0.50000000  0.50000000       0.016

 position of ions in fractional coordinates (direct lattice) 
   0.66666667  0.66666667  0.00000000
   0.00000000  0.66666667  0.00000000
   0.33333333  0.66666667  0.00000000
   0.66666667  0.00000000  0.00000000
   0.01800000  0.00000000  0.00000000
   0.33333333  0.00000000  0.00000000
   0.66666667  0.33333333  0.00000000
   0.00000000  0.33333333  0.00000000
   0.33333333  0.33333333  0.00000000
   0.66666667  0.66666667  0.50000000
   0.00000000  0.66666667  0.50000000
   0.33333333  0.66666667  0.50000000
   0.66666667  0.00000000  0.50000000
   0.00000000  0.00000000  0.50000000
   0.33333333  0.00000000  0.50000000
   0.66666667  0.33333333  0.50000000
   0.00000000  0.33333333  0.50000000
   0.33333333  0.33333333  0.50000000
   0.66666667  0.66666667  0.75000000
   0.00000000  0.66666667  0.75000000
   0.33333333  0.66666667  0.75000000
   0.66666667  0.00000000  0.75000000
   0.00000000  0.00000000  0.75000000
   0.33333333  0.00000000  0.75000000
   0.66666667  0.33333333  0.75000000
   0.00000000  0.33333333  0.75000000
   0.33333333  0.33333333  0.75000000
   0.66666667  0.66666667  0.25000000
   0.00000000  0.66666667  0.25000000
   0.33333333  0.66666667  0.25000000
   0.66666667  0.00000000  0.25000000
   0.00000000  0.00000000  0.25000000
   0.33333333  0.00000000  0.25000000
   0.66666667  0.33333333  0.25000000
   0.00000000  0.33333333  0.25000000
   0.33333333  0.33333333  0.25000000
   0.77777778  0.55555556  0.62500000
   0.11111111  0.55555556  0.62500000
   0.44444444  0.55555556  0.62500000
   0.77777778  0.88888889  0.62500000
   0.11111111  0.88888889  0.62500000
   0.44444444  0.88888889  0.62500000
   0.77777778  0.22222222  0.62500000
   0.11111111  0.22222222  0.62500000
   0.44444444  0.22222222  0.62500000
   0.77777778  0.55555556  0.12500000
   0.11111111  0.55555556  0.12500000
   0.44444444  0.55555556  0.12500000
   0.77777778  0.88888889  0.12500000
   0.11111111  0.88888889  0.12500000
   0.44444444  0.88888889  0.12500000
   0.77777778  0.22222222  0.12500000
   0.11111111  0.22222222  0.12500000
   0.44444444  0.22222222  0.12500000
   0.55555556  0.77777778  0.87500000
   0.88888889  0.77777778  0.87500000
   0.22222222  0.77777778  0.87500000
   0.55555556  0.11111111  0.87500000
   0.88888889  0.11111111  0.87500000
   0.22222222  0.11111111  0.87500000
   0.55555556  0.44444444  0.87500000
   0.88888889  0.44444444  0.87500000
   0.22222222  0.44444444  0.87500000
   0.55555556  0.77777778  0.37500000
   0.88888889  0.77777778  0.37500000
   0.22222222  0.77777778  0.37500000
   0.55555556  0.11111111  0.37500000
   0.88888889  0.11111111  0.37500000
   0.22222222  0.11111111  0.37500000
   0.55555556  0.44444444  0.37500000
   0.88888889  0.44444444  0.37500000
   0.22222222  0.44444444  0.37500000

 position of ions in cartesian coordinates  (Angst):
   3.66673905  6.35097833  0.00000000
  -3.66673905  6.35097833  0.00000000
  -0.00000000  6.35097833  0.00000000
   7.33347810  0.00000000  0.00000000
   0.19800391  0.00000000  0.00000000
   3.66673905  0.00000000  0.00000000
   5.50010857  3.17548916  0.00000000
  -1.83336952  3.17548916  0.00000000
   1.83336952  3.17548916  0.00000000
   3.66673905  6.35097833  5.50763655
  -3.66673905  6.35097833  5.50763655
  -0.00000000  6.35097833  5.50763655
   7.33347810  0.00000000  5.50763655
   0.00000000  0.00000000  5.50763655
   3.66673905  0.00000000  5.50763655
   5.50010857  3.17548916  5.50763655
  -1.83336952  3.17548916  5.50763655
   1.83336952  3.17548916  5.50763655
   3.66673905  6.35097833  8.26145483
  -3.66673905  6.35097833  8.26145483
  -0.00000000  6.35097833  8.26145483
   7.33347810  0.00000000  8.26145483
   0.00000000  0.00000000  8.26145483
   3.66673905  0.00000000  8.26145483
   5.50010857  3.17548916  8.26145483
  -1.83336952  3.17548916  8.26145483
   1.83336952  3.17548916  8.26145483
   3.66673905  6.35097833  2.75381828
  -3.66673905  6.35097833  2.75381828
  -0.00000000  6.35097833  2.75381828
   7.33347810  0.00000000  2.75381828
   0.00000000  0.00000000  2.75381828
   3.66673905  0.00000000  2.75381828
   5.50010857  3.17548916  2.75381828
  -1.83336952  3.17548916  2.75381828
   1.83336952  3.17548916  2.75381828
   5.50010857  5.29248194  6.88454569
  -1.83336952  5.29248194  6.88454569
   1.83336952  5.29248194  6.88454569
   3.66673905  8.46797111  6.88454569
  -3.66673905  8.46797111  6.88454569
  -0.00000000  8.46797111  6.88454569
   7.33347810  2.11699278  6.88454569
  -0.00000000  2.11699278  6.88454569
   3.66673905  2.11699278  6.88454569
   5.50010857  5.29248194  1.37690914
  -1.83336952  5.29248194  1.37690914
   1.83336952  5.29248194  1.37690914
   3.66673905  8.46797111  1.37690914
  -3.66673905  8.46797111  1.37690914
  -0.00000000  8.46797111  1.37690914
   7.33347810  2.11699278  1.37690914
  -0.00000000  2.11699278  1.37690914
   3.66673905  2.11699278  1.37690914
   1.83336952  7.40947472  9.63836396
   5.50010857  7.40947472  9.63836396
  -1.83336952  7.40947472  9.63836396
   5.50010857  1.05849639  9.63836396
   9.16684762  1.05849639  9.63836396
   1.83336952  1.05849639  9.63836396
   3.66673905  4.23398555  9.63836396
   7.33347810  4.23398555  9.63836396
  -0.00000000  4.23398555  9.63836396
   1.83336952  7.40947472  4.13072741
   5.50010857  7.40947472  4.13072741
  -1.83336952  7.40947472  4.13072741
   5.50010857  1.05849639  4.13072741
   9.16684762  1.05849639  4.13072741
   1.83336952  1.05849639  4.13072741
   3.66673905  4.23398555  4.13072741
   7.33347810  4.23398555  4.13072741
  -0.00000000  4.23398555  4.13072741



--------------------------------------------------------------------------------------------------------


 k-point  1 :   0.0000 0.0000 0.0000  plane waves:   14931
 k-point  2 :   0.2500 0.0000 0.0000  plane waves:   14982
 k-point  3 :   0.5000 0.0000 0.0000  plane waves:   15008
 k-point  4 :   0.0000 0.2500 0.0000  plane waves:   14982
 k-point  5 :   0.2500 0.2500 0.0000  plane waves:   14994
 k-point  6 :   0.5000 0.2500 0.0000  plane waves:   14994
 k-point  7 :   0.0000 0.5000 0.0000  plane waves:   15008
 k-point  8 :   0.0000 0.0000 0.2500  plane waves:   14990
 k-point  9 :   0.2500 0.0000 0.2500  plane waves:   15013
 k-point 10 :   0.5000 0.0000 0.2500  plane waves:   15002
 k-point 11 :  -0.2500 0.0000 0.2500  plane waves:   15013
 k-point 12 :   0.0000 0.2500 0.2500  plane waves:   15013
 k-point 13 :   0.2500 0.2500 0.2500  plane waves:   15003
 k-point 14 :   0.5000 0.2500 0.2500  plane waves:   15003
 k-point 15 :   0.0000 0.5000 0.2500  plane waves:   15002
 k-point 16 :   0.2500 0.5000 0.2500  plane waves:   15003
 k-point 17 :   0.0000-0.2500 0.2500  plane waves:   15013
 k-point 18 :   0.0000 0.0000 0.5000  plane waves:   14984
 k-point 19 :   0.2500 0.0000 0.5000  plane waves:   15008
 k-point 20 :   0.5000 0.0000 0.5000  plane waves:   15044
 k-point 21 :   0.0000 0.2500 0.5000  plane waves:   15008
 k-point 22 :   0.2500 0.2500 0.5000  plane waves:   15006
 k-point 23 :   0.5000 0.2500 0.5000  plane waves:   15006
 k-point 24 :   0.0000 0.5000 0.5000  plane waves:   15044

 maximum and minimum number of plane-waves per node :      3774     3707

 maximum number of plane-waves:     15044
 maximum index in each direction: 
   IXMAX=   16   IYMAX=   16   IZMAX=   16
   IXMIN=  -16   IYMIN=  -16   IZMIN=  -16

 NGX is ok and might be reduce to  66
 NGY is ok and might be reduce to  66
 NGZ is ok and might be reduce to  66

 real space projection operators:
  total allocation   :      41364.56 KBytes
  max/ min on nodes  :      10761.27       9933.50


 parallel 3D FFT for wavefunctions:
    minimum data exchange during FFTs selected (reduces bandwidth)
 parallel 3D FFT for charge:
    minimum data exchange during FFTs selected (reduces bandwidth)


 total amount of memory used by VASP on root node   334140. kBytes
========================================================================

   base      :      30000. kBytes
   nonlr-proj:      20521. kBytes
   fftplans  :      28296. kBytes
   grid      :      21369. kBytes
   one-center:        559. kBytes
   wavefun   :     233395. kBytes

     INWAV:  cpu time    0.0000: real time    0.0004
 Broyden mixing: mesh for mixing (old mesh)
   NGX = 33   NGY = 33   NGZ = 33
  (NGX  =140   NGY  =140   NGZ  =140)
  gives a total of  35937 points

 initial charge density was supplied:
 charge density of overlapping atoms calculated
 number of electron     432.0000000 magnetization      36.0000000
 keeping initial charge density in first step


--------------------------------------------------------------------------------------------------------


 Maximum index for non-local projection operator         1589
 Maximum index for augmentation-charges         6365 (set IRDMAX)


--------------------------------------------------------------------------------------------------------


 First call to EWALD:  gamma=   0.169
 Maximum number of real-space cells 3x 3x 3
 Maximum number of reciprocal cells 3x 3x 3

 FEWALD executed in parallel
    FEWALD:  cpu time    0.0280: real time    0.0274


----------------------------------------- Iteration    1(   1)  ---------------------------------------


    POTLOK:  cpu time    1.5320: real time    1.5329
    SETDIJ:  cpu time    2.1880: real time    2.1913
     EDDAV:  cpu time  813.0400: real time  814.6373
       DOS:  cpu time    0.0440: real time    0.0455
    --------------------------------------------
      LOOP:  cpu time  816.8080: real time  818.4132

 eigenvalue-minimisations  : 29112
 total energy-change (2. order) : 0.3247557E+04  (-0.1146195E+05)
 number of electron     432.0000000 magnetization      36.0000000
 augmentation part      432.0000000 magnetization      36.0000000

 Free energy of the ion-electron system (eV)
  ---------------------------------------------------
  alpha Z        PSCENC =      1700.89082154
  Ewald energy   TEWEN  =    -21120.61003066
  -Hartree energ DENC   =     -3904.33445995
  -exchange      EXHF   =         0.00000000
  -V(xc)+E(xc)   XCENC  =      -848.09208807
  PAW double counting   =     14295.91323732   -12980.49464661
  entropy T*S    EENTRO =        -0.00163352
  eigenvalues    EBANDS =      4975.07651260
  atomic energy  EATOM  =     21129.20924906
  Solvation  Ediel_sol  =         0.00000000
  ---------------------------------------------------
  free energy    TOTEN  =      3247.55696172 eV

  energy without entropy =     3247.55859524  energy(sigma->0) =     3247.55750622


--------------------------------------------------------------------------------------------------------




----------------------------------------- Iteration    1(   2)  ---------------------------------------


     EDDAV:  cpu time  791.8560: real time  793.3890
       DOS:  cpu time    0.0480: real time    0.0492
    --------------------------------------------
      LOOP:  cpu time  791.9560: real time  793.5046

 eigenvalue-minimisations  : 28800
 total energy-change (2. order) :-0.3331985E+04  (-0.3200559E+04)
 number of electron     432.0000000 magnetization      36.0000000
 augmentation part      432.0000000 magnetization      36.0000000

 Free energy of the ion-electron system (eV)
  ---------------------------------------------------
  alpha Z        PSCENC =      1700.89082154
  Ewald energy   TEWEN  =    -21120.61003066
  -Hartree energ DENC   =     -3904.33445995
  -exchange      EXHF   =         0.00000000
  -V(xc)+E(xc)   XCENC  =      -848.09208807
  PAW double counting   =     14295.91323732   -12980.49464661
  entropy T*S    EENTRO =        -0.00649739
  eigenvalues    EBANDS =      1643.09625332
  atomic energy  EATOM  =     21129.20924906
  Solvation  Ediel_sol  =         0.00000000
  ---------------------------------------------------
  free energy    TOTEN  =       -84.42816143 eV

  energy without entropy =      -84.42166404  energy(sigma->0) =      -84.42599563


--------------------------------------------------------------------------------------------------------




----------------------------------------- Iteration    1(   3)  ---------------------------------------


     EDDAV:  cpu time 1080.4000: real time 1082.4462
       DOS:  cpu time    0.0560: real time    0.0540
    --------------------------------------------
      LOOP:  cpu time 1080.5080: real time 1082.5567

 eigenvalue-minimisations  : 42504
 total energy-change (2. order) :-0.4177901E+03  (-0.3745067E+03)
 number of electron     432.0000000 magnetization      36.0000000
 augmentation part      432.0000000 magnetization      36.0000000

 Free energy of the ion-electron system (eV)
  ---------------------------------------------------
  alpha Z        PSCENC =      1700.89082154
  Ewald energy   TEWEN  =    -21120.61003066
  -Hartree energ DENC   =     -3904.33445995
  -exchange      EXHF   =         0.00000000
  -V(xc)+E(xc)   XCENC  =      -848.09208807
  PAW double counting   =     14295.91323732   -12980.49464661
  entropy T*S    EENTRO =        -0.06975963
  eigenvalues    EBANDS =      1225.36941336
  atomic energy  EATOM  =     21129.20924906
  Solvation  Ediel_sol  =         0.00000000
  ---------------------------------------------------
  free energy    TOTEN  =      -502.21826363 eV

  energy without entropy =     -502.14850400  energy(sigma->0) =     -502.19501042


--------------------------------------------------------------------------------------------------------




----------------------------------------- Iteration    1(   4)  ---------------------------------------


     EDDAV:  cpu time 1161.9040: real time 1164.2288
       DOS:  cpu time    0.0560: real time    0.0561
    --------------------------------------------
      LOOP:  cpu time 1162.0120: real time 1164.3624

 eigenvalue-minimisations  : 46408
 total energy-change (2. order) :-0.4178314E+02  (-0.3700944E+02)
 number of electron     432.0000000 magnetization      36.0000000
 augmentation part      432.0000000 magnetization      36.0000000

 Free energy of the ion-electron system (eV)
  ---------------------------------------------------
  alpha Z        PSCENC =      1700.89082154
  Ewald energy   TEWEN  =    -21120.61003066
  -Hartree energ DENC   =     -3904.33445995
  -exchange      EXHF   =         0.00000000
  -V(xc)+E(xc)   XCENC  =      -848.09208807
  PAW double counting   =     14295.91323732   -12980.49464661
  entropy T*S    EENTRO =        -0.05677102
  eigenvalues    EBANDS =      1183.57328901
  atomic energy  EATOM  =     21129.20924906
  Solvation  Ediel_sol  =         0.00000000
  ---------------------------------------------------
  free energy    TOTEN  =      -544.00139937 eV

  energy without entropy =     -543.94462835  energy(sigma->0) =     -543.98247570


--------------------------------------------------------------------------------------------------------




----------------------------------------- Iteration    1(   5)  ---------------------------------------


     EDDAV:  cpu time 1213.2560: real time 1215.4519
       DOS:  cpu time    0.0600: real time    0.0591
    CHARGE:  cpu time   44.3080: real time   44.3913
    MIXING:  cpu time    0.1440: real time    0.1408
    --------------------------------------------
      LOOP:  cpu time 1257.8320: real time 1260.1305

 eigenvalue-minimisations  : 48936
 total energy-change (2. order) :-0.2874170E+01  (-0.2712955E+01)
 number of electron     432.0000001 magnetization      39.8033309
 augmentation part       60.2154885 magnetization      21.5451511

 Broyden mixing:
  rms(total) = 0.61278E+01    rms(broyden)= 0.61261E+01
  rms(prec ) = 0.79561E+01
  weight for this iteration     100.00

 Free energy of the ion-electron system (eV)
  ---------------------------------------------------
  alpha Z        PSCENC =      1700.89082154
  Ewald energy   TEWEN  =    -21120.61003066
  -Hartree energ DENC   =     -3904.33445995
  -exchange      EXHF   =         0.00000000
  -V(xc)+E(xc)   XCENC  =      -848.09208807
  PAW double counting   =     14295.91323732   -12980.49464661
  entropy T*S    EENTRO =        -0.05152195
  eigenvalues    EBANDS =      1180.69386967
  atomic energy  EATOM  =     21129.20924906
  Solvation  Ediel_sol  =         0.00000000
  ---------------------------------------------------
  free energy    TOTEN  =      -546.87556964 eV

  energy without entropy =     -546.82404769  energy(sigma->0) =     -546.85839566


--------------------------------------------------------------------------------------------------------




----------------------------------------- Iteration    1(   6)  ---------------------------------------


    POTLOK:  cpu time    1.4920: real time    1.5025
    SETDIJ:  cpu time    2.1800: real time    2.1839
     EDDAV:  cpu time 1101.4080: real time 1103.6367
       DOS:  cpu time    0.0560: real time    0.0553
    CHARGE:  cpu time   44.5720: real time   44.6613
    MIXING:  cpu time    0.1040: real time    0.1032
    --------------------------------------------
      LOOP:  cpu time 1149.8120: real time 1152.1621

 eigenvalue-minimisations  : 43708
 total energy-change (2. order) :-0.6615620E+02  (-0.1401099E+03)
 number of electron     432.0000004 magnetization      39.5939865
 augmentation part      144.4001814 magnetization      33.8198469

 Broyden mixing:
  rms(total) = 0.93375E+01    rms(broyden)= 0.93363E+01
  rms(prec ) = 0.12583E+02
  weight for this iteration     100.00

 eigenvalues of (default mixing * dielectric matrix)
  average eigenvalue GAMMA=   0.4113
  0.4113

 Free energy of the ion-electron system (eV)
  ---------------------------------------------------
  alpha Z        PSCENC =      1700.89082154
  Ewald energy   TEWEN  =    -21120.61003066
  -Hartree energ DENC   =     -3182.48462091
  -exchange      EXHF   =         0.00000000
  -V(xc)+E(xc)   XCENC  =      -859.97864775
  PAW double counting   =     13314.75474659   -11918.43121972
  entropy T*S    EENTRO =        -0.22436609
  eigenvalues    EBANDS =       323.84229856
  atomic energy  EATOM  =     21129.20924906
  Solvation  Ediel_sol  =         0.00000000
  ---------------------------------------------------
  free energy    TOTEN  =      -613.03176937 eV

  energy without entropy =     -612.80740328  energy(sigma->0) =     -612.95698067


--------------------------------------------------------------------------------------------------------




----------------------------------------- Iteration    1(   7)  ---------------------------------------


    POTLOK:  cpu time    1.3320: real time    1.5159
    SETDIJ:  cpu time    2.1880: real time    2.1897
     EDDAV:  cpu time 1143.6680: real time 1145.9241
       DOS:  cpu time    0.0560: real time    0.0579
    CHARGE:  cpu time   42.6880: real time   42.7451
    MIXING:  cpu time    0.1200: real time    0.1227
    --------------------------------------------
      LOOP:  cpu time 1190.0520: real time 1192.5879

 eigenvalue-minimisations  : 45664
 total energy-change (2. order) : 0.1118816E+03  (-0.6125016E+02)
 number of electron     432.0000002 magnetization      40.4596676
 augmentation part       86.9404470 magnetization      20.6479682

 Broyden mixing:
  rms(total) = 0.39612E+01    rms(broyden)= 0.39595E+01
  rms(prec ) = 0.52655E+01
  weight for this iteration     100.00

 eigenvalues of (default mixing * dielectric matrix)
  average eigenvalue GAMMA=   0.2136
  0.4079  0.0193

 Free energy of the ion-electron system (eV)
  ---------------------------------------------------
  alpha Z        PSCENC =      1700.89082154
  Ewald energy   TEWEN  =    -21120.61003066
  -Hartree energ DENC   =     -3617.44813157
  -exchange      EXHF   =         0.00000000
  -V(xc)+E(xc)   XCENC  =      -845.85821456
  PAW double counting   =     14398.91324104   -13078.95242593
  entropy T*S    EENTRO =         0.02858048
  eigenvalues    EBANDS =       932.67675253
  atomic energy  EATOM  =     21129.20924906
  Solvation  Ediel_sol  =         0.00000000
  ---------------------------------------------------
  free energy    TOTEN  =      -501.15015808 eV

  energy without entropy =     -501.17873856  energy(sigma->0) =     -501.15968491


--------------------------------------------------------------------------------------------------------




----------------------------------------- Iteration    1(   8)  ---------------------------------------


    POTLOK:  cpu time    1.4440: real time    1.4474
    SETDIJ:  cpu time    2.1960: real time    2.1987
     EDDAV:  cpu time 1056.9560: real time 1058.9647
       DOS:  cpu time    0.0600: real time    0.0619
    CHARGE:  cpu time   42.8040: real time   42.8797
    MIXING:  cpu time    0.1320: real time    0.1295
    --------------------------------------------
      LOOP:  cpu time 1103.5960: real time 1105.6898

 eigenvalue-minimisations  : 43040
 total energy-change (2. order) :-0.4396196E+00  (-0.5942013E+01)
 number of electron     432.0000002 magnetization      39.3912200
 augmentation part       84.5513836 magnetization      18.2491542

 Broyden mixing:
  rms(total) = 0.27799E+01    rms(broyden)= 0.27797E+01
  rms(prec ) = 0.31988E+01
  weight for this iteration     100.00

 eigenvalues of (default mixing * dielectric matrix)
  average eigenvalue GAMMA=   0.4290
  0.7911  0.3744  0.1215

 Free energy of the ion-electron system (eV)
  ---------------------------------------------------
  alpha Z        PSCENC =      1700.89082154
  Ewald energy   TEWEN  =    -21120.61003066
  -Hartree energ DENC   =     -3615.69702368
  -exchange      EXHF   =         0.00000000
  -V(xc)+E(xc)   XCENC  =      -844.62565570
  PAW double counting   =     14425.17433887   -13106.93975401
  entropy T*S    EENTRO =         0.03950191
  eigenvalues    EBANDS =       930.96877495
  atomic energy  EATOM  =     21129.20924906
  Solvation  Ediel_sol  =         0.00000000
  ---------------------------------------------------
  free energy    TOTEN  =      -501.58977771 eV

  energy without entropy =     -501.62927962  energy(sigma->0) =     -501.60294501


--------------------------------------------------------------------------------------------------------




----------------------------------------- Iteration    1(   9)  ---------------------------------------


    POTLOK:  cpu time    1.4560: real time    1.4573
    SETDIJ:  cpu time    2.1440: real time    2.1502
     EDDAV:  cpu time 1135.3880: real time 1137.2063
       DOS:  cpu time    0.0560: real time    0.0579
    CHARGE:  cpu time   43.0880: real time   43.1510
    MIXING:  cpu time    0.1480: real time    0.1486
    --------------------------------------------
      LOOP:  cpu time 1182.2800: real time 1184.1781

 eigenvalue-minimisations  : 46944
 total energy-change (2. order) :-0.3586148E+00  (-0.2597752E+00)
 number of electron     432.0000002 magnetization      38.2879507
 augmentation part       83.7551836 magnetization      17.5183961

 Broyden mixing:
  rms(total) = 0.30002E+01    rms(broyden)= 0.30002E+01
  rms(prec ) = 0.35481E+01
  weight for this iteration     100.00

 eigenvalues of (default mixing * dielectric matrix)
  average eigenvalue GAMMA=   0.4125
  1.0687  0.3788  0.1106  0.0920

 Free energy of the ion-electron system (eV)
  ---------------------------------------------------
  alpha Z        PSCENC =      1700.89082154
  Ewald energy   TEWEN  =    -21120.61003066
  -Hartree energ DENC   =     -3620.58164459
  -exchange      EXHF   =         0.00000000
  -V(xc)+E(xc)   XCENC  =      -845.99707533
  PAW double counting   =     14405.76331219   -13086.52542055
  entropy T*S    EENTRO =         0.01670819
  eigenvalues    EBANDS =       935.88568766
  atomic energy  EATOM  =     21129.20924906
  Solvation  Ediel_sol  =         0.00000000
  ---------------------------------------------------
  free energy    TOTEN  =      -501.94839247 eV

  energy without entropy =     -501.96510067  energy(sigma->0) =     -501.95396187


--------------------------------------------------------------------------------------------------------




----------------------------------------- Iteration    1(  10)  ---------------------------------------


    POTLOK:  cpu time    1.4640: real time    1.4677
    SETDIJ:  cpu time    2.1600: real time    2.1611
     EDDAV:  cpu time 1093.7920: real time 1095.7929
       DOS:  cpu time    0.0560: real time    0.0556
    CHARGE:  cpu time   42.6920: real time   42.7618
    MIXING:  cpu time    0.1320: real time    0.1331
    --------------------------------------------
      LOOP:  cpu time 1140.2960: real time 1142.3774

 eigenvalue-minimisations  : 44864
 total energy-change (2. order) : 0.8674006E+00  (-0.6102460E-01)
 number of electron     432.0000002 magnetization      48.8928028
 augmentation part       83.4175526 magnetization      28.3543140

 Broyden mixing:
  rms(total) = 0.29029E+01    rms(broyden)= 0.29029E+01
  rms(prec ) = 0.33221E+01
  weight for this iteration     100.00

 eigenvalues of (default mixing * dielectric matrix)
  average eigenvalue GAMMA=   0.5607
  1.1111  1.1111  0.3487  0.1340  0.0985

 Free energy of the ion-electron system (eV)
  ---------------------------------------------------
  alpha Z        PSCENC =      1700.89082154
  Ewald energy   TEWEN  =    -21120.61003066
  -Hartree energ DENC   =     -3624.14195536
  -exchange      EXHF   =         0.00000000
  -V(xc)+E(xc)   XCENC  =      -847.22083798
  PAW double counting   =     14388.90671190   -13068.73028802
  entropy T*S    EENTRO =         0.00196462
  eigenvalues    EBANDS =       940.61337299
  atomic energy  EATOM  =     21129.20924906
  Solvation  Ediel_sol  =         0.00000000
  ---------------------------------------------------
  free energy    TOTEN  =      -501.08099191 eV

  energy without entropy =     -501.08295652  energy(sigma->0) =     -501.08164678


--------------------------------------------------------------------------------------------------------




----------------------------------------- Iteration    1(  11)  ---------------------------------------


    POTLOK:  cpu time    1.4440: real time    1.4467
    SETDIJ:  cpu time    2.1600: real time    2.1633
     EDDAV:  cpu time 1265.0240: real time 1267.4898
       DOS:  cpu time    0.0560: real time    0.0573
    CHARGE:  cpu time   41.7800: real time   41.8576
    MIXING:  cpu time    0.1440: real time    0.1454
    --------------------------------------------
      LOOP:  cpu time 1310.6080: real time 1313.1722

 eigenvalue-minimisations  : 53472
 total energy-change (2. order) :-0.8688246E+01  (-0.1024541E+01)
 number of electron     432.0000002 magnetization      63.0442285
 augmentation part       83.6257032 magnetization      40.5822282

 Broyden mixing:
  rms(total) = 0.38737E+01    rms(broyden)= 0.38733E+01
  rms(prec ) = 0.52040E+01
  weight for this iteration     100.00

 eigenvalues of (default mixing * dielectric matrix)
  average eigenvalue GAMMA=   0.5680
  1.3569  1.3569  0.3471  0.1433  0.1082  0.0956

 Free energy of the ion-electron system (eV)
  ---------------------------------------------------
  alpha Z        PSCENC =      1700.89082154
  Ewald energy   TEWEN  =    -21120.61003066
  -Hartree energ DENC   =     -3622.84716741
  -exchange      EXHF   =         0.00000000
  -V(xc)+E(xc)   XCENC  =      -838.02508428
  PAW double counting   =     14486.28617905   -13175.43370308
  entropy T*S    EENTRO =         0.05242431
  eigenvalues    EBANDS =       930.70807307
  atomic energy  EATOM  =     21129.20924906
  Solvation  Ediel_sol  =         0.00000000
  ---------------------------------------------------
  free energy    TOTEN  =      -509.76923839 eV

  energy without entropy =     -509.82166270  energy(sigma->0) =     -509.78671316


--------------------------------------------------------------------------------------------------------




----------------------------------------- Iteration    1(  12)  ---------------------------------------


    POTLOK:  cpu time    1.4280: real time    1.4277
    SETDIJ:  cpu time    2.0360: real time    2.0407
     EDDAV:  cpu time 1259.9840: real time 1262.4021
       DOS:  cpu time    0.0560: real time    0.0559
    CHARGE:  cpu time   43.1640: real time   43.2435
    MIXING:  cpu time    0.0960: real time    0.0967
    --------------------------------------------
      LOOP:  cpu time 1306.7640: real time 1309.2737

 eigenvalue-minimisations  : 53568
 total energy-change (2. order) : 0.1392244E+01  (-0.1478023E+01)
 number of electron     432.0000002 magnetization      71.9732590
 augmentation part       83.6412525 magnetization      45.9947186

 Broyden mixing:
  rms(total) = 0.21718E+01    rms(broyden)= 0.21712E+01
  rms(prec ) = 0.25954E+01
  weight for this iteration     100.00

 eigenvalues of (default mixing * dielectric matrix)
  average eigenvalue GAMMA=   0.6138
  1.6382  1.6382  0.3825  0.2819  0.1474  0.0987  0.1095

 Free energy of the ion-electron system (eV)
  ---------------------------------------------------
  alpha Z        PSCENC =      1700.89082154
  Ewald energy   TEWEN  =    -21120.61003066
  -Hartree energ DENC   =     -3618.72860267
  -exchange      EXHF   =         0.00000000
  -V(xc)+E(xc)   XCENC  =      -822.70758674
  PAW double counting   =     14610.86978143   -13312.82427434
  entropy T*S    EENTRO =         0.06520690
  eigenvalues    EBANDS =       925.45844064
  atomic energy  EATOM  =     21129.20924906
  Solvation  Ediel_sol  =         0.00000000
  ---------------------------------------------------
  free energy    TOTEN  =      -508.37699483 eV

  energy without entropy =     -508.44220173  energy(sigma->0) =     -508.39873046


--------------------------------------------------------------------------------------------------------




----------------------------------------- Iteration    1(  13)  ---------------------------------------


    POTLOK:  cpu time    1.4520: real time    1.4577
    SETDIJ:  cpu time    2.0720: real time    2.0757
     EDDAV:  cpu time 1205.1520: real time 1207.7654
       DOS:  cpu time    0.0560: real time    0.0564
    CHARGE:  cpu time   42.9280: real time   43.0061
    MIXING:  cpu time    0.0920: real time    0.0905
    --------------------------------------------
      LOOP:  cpu time 1251.7560: real time 1254.4573

 eigenvalue-minimisations  : 50824
 total energy-change (2. order) :-0.1310228E+01  (-0.4511511E+00)
 number of electron     432.0000002 magnetization      79.9779257
 augmentation part       84.2366334 magnetization      53.0886765

 Broyden mixing:
  rms(total) = 0.17740E+01    rms(broyden)= 0.17738E+01
  rms(prec ) = 0.22290E+01
  weight for this iteration     100.00

 eigenvalues of (default mixing * dielectric matrix)
  average eigenvalue GAMMA=   0.5980
  1.7358  1.7358  0.3896  0.2887  0.2887  0.1354  0.0968  0.1131

 Free energy of the ion-electron system (eV)
  ---------------------------------------------------
  alpha Z        PSCENC =      1700.89082154
  Ewald energy   TEWEN  =    -21120.61003066
  -Hartree energ DENC   =     -3605.85672224
  -exchange      EXHF   =         0.00000000
  -V(xc)+E(xc)   XCENC  =      -812.12790954
  PAW double counting   =     14676.62344575   -13385.73425725
  entropy T*S    EENTRO =         0.04546167
  eigenvalues    EBANDS =       907.87271905
  atomic energy  EATOM  =     21129.20924906
  Solvation  Ediel_sol  =         0.00000000
  ---------------------------------------------------
  free energy    TOTEN  =      -509.68722261 eV

  energy without entropy =     -509.73268428  energy(sigma->0) =     -509.70237650


--------------------------------------------------------------------------------------------------------




----------------------------------------- Iteration    1(  14)  ---------------------------------------


    POTLOK:  cpu time    1.4480: real time    1.4506
    SETDIJ:  cpu time    2.0480: real time    2.0504
     EDDAV:  cpu time 1219.6160: real time 1221.9072
       DOS:  cpu time    0.0520: real time    0.0544
    CHARGE:  cpu time   42.8360: real time   42.9171
    MIXING:  cpu time    0.1320: real time    0.1304
    --------------------------------------------
      LOOP:  cpu time 1266.1320: real time 1268.5157

 eigenvalue-minimisations  : 51400
 total energy-change (2. order) :-0.9446404E-01  (-0.3361561E+00)
 number of electron     432.0000002 magnetization      86.0895168
 augmentation part       85.2712615 magnetization      58.4610506

 Broyden mixing:
  rms(total) = 0.12862E+01    rms(broyden)= 0.12860E+01
  rms(prec ) = 0.16237E+01
  weight for this iteration     100.00

 eigenvalues of (default mixing * dielectric matrix)
  average eigenvalue GAMMA=   0.6729
  1.9193  1.9193  0.6901  0.6901  0.3392  0.1517  0.1369  0.0973  0.1117

 Free energy of the ion-electron system (eV)
  ---------------------------------------------------
  alpha Z        PSCENC =      1700.89082154
  Ewald energy   TEWEN  =    -21120.61003066
  -Hartree energ DENC   =     -3588.36902024
  -exchange      EXHF   =         0.00000000
  -V(xc)+E(xc)   XCENC  =      -802.56147501
  PAW double counting   =     14730.27725194   -13445.07640748
  entropy T*S    EENTRO =         0.03318697
  eigenvalues    EBANDS =       886.42473722
  atomic energy  EATOM  =     21129.20924906
  Solvation  Ediel_sol  =         0.00000000
  ---------------------------------------------------
  free energy    TOTEN  =      -509.78168665 eV

  energy without entropy =     -509.81487362  energy(sigma->0) =     -509.79274898


--------------------------------------------------------------------------------------------------------




----------------------------------------- Iteration    1(  15)  ---------------------------------------


    POTLOK:  cpu time    1.4320: real time    1.4322
    SETDIJ:  cpu time    2.0560: real time    2.0600
     EDDAV:  cpu time 1179.9200: real time 1182.0864
       DOS:  cpu time    0.0600: real time    0.0589
    CHARGE:  cpu time   44.1840: real time   44.2687
    MIXING:  cpu time    0.1080: real time    0.1082
    --------------------------------------------
      LOOP:  cpu time 1227.7600: real time 1230.0216

 eigenvalue-minimisations  : 49536
 total energy-change (2. order) : 0.6143410E-01  (-0.3744320E+00)
 number of electron     432.0000002 magnetization      88.9714168
 augmentation part       87.5779406 magnetization      61.2526797

 Broyden mixing:
  rms(total) = 0.11514E+01    rms(broyden)= 0.11513E+01
  rms(prec ) = 0.15395E+01
  weight for this iteration     100.00

 eigenvalues of (default mixing * dielectric matrix)
  average eigenvalue GAMMA=   0.6584
  2.0020  2.0020  0.7578  0.7578  0.3402  0.2255  0.1460  0.1437  0.0973  0.1113

 Free energy of the ion-electron system (eV)
  ---------------------------------------------------
  alpha Z        PSCENC =      1700.89082154
  Ewald energy   TEWEN  =    -21120.61003066
  -Hartree energ DENC   =     -3557.88831362
  -exchange      EXHF   =         0.00000000
  -V(xc)+E(xc)   XCENC  =      -799.73739754
  PAW double counting   =     14760.69440468   -13476.70075402
  entropy T*S    EENTRO =         0.02771157
  eigenvalues    EBANDS =       854.39405643
  atomic energy  EATOM  =     21129.20924906
  Solvation  Ediel_sol  =         0.00000000
  ---------------------------------------------------
  free energy    TOTEN  =      -509.72025256 eV

  energy without entropy =     -509.74796413  energy(sigma->0) =     -509.72948975


--------------------------------------------------------------------------------------------------------




----------------------------------------- Iteration    1(  16)  ---------------------------------------


    POTLOK:  cpu time    1.4360: real time    1.4389
    SETDIJ:  cpu time    2.0600: real time    2.0636
     EDDAV:  cpu time 1204.9200: real time 1207.1366
       DOS:  cpu time    0.0520: real time    0.0533
    CHARGE:  cpu time   42.4920: real time   42.5693
    MIXING:  cpu time    0.1200: real time    0.1189
    --------------------------------------------
      LOOP:  cpu time 1251.0840: real time 1253.3874

 eigenvalue-minimisations  : 50920
 total energy-change (2. order) : 0.4457153E+00  (-0.2840996E+00)
 number of electron     432.0000002 magnetization      99.7533841
 augmentation part       88.5883104 magnetization      71.8532358

 Broyden mixing:
  rms(total) = 0.72505E+00    rms(broyden)= 0.72487E+00
  rms(prec ) = 0.83957E+00
  weight for this iteration     100.00

 eigenvalues of (default mixing * dielectric matrix)
  average eigenvalue GAMMA=   0.7296
  2.2012  2.2012  1.0551  1.0551  0.5153  0.3362  0.0973  0.1114  0.1669  0.1388
  0.1472

 Free energy of the ion-electron system (eV)
  ---------------------------------------------------
  alpha Z        PSCENC =      1700.89082154
  Ewald energy   TEWEN  =    -21120.61003066
  -Hartree energ DENC   =     -3544.92937475
  -exchange      EXHF   =         0.00000000
  -V(xc)+E(xc)   XCENC  =      -798.62908348
  PAW double counting   =     14776.90734291   -13493.59589572
  entropy T*S    EENTRO =         0.03146041
  eigenvalues    EBANDS =       841.45097346
  atomic energy  EATOM  =     21129.20924906
  Solvation  Ediel_sol  =         0.00000000
  ---------------------------------------------------
  free energy    TOTEN  =      -509.27453722 eV

  energy without entropy =     -509.30599763  energy(sigma->0) =     -509.28502402


--------------------------------------------------------------------------------------------------------




----------------------------------------- Iteration    1(  17)  ---------------------------------------


    POTLOK:  cpu time    1.4400: real time    1.4446
    SETDIJ:  cpu time    2.0560: real time    2.0584
     EDDAV:  cpu time 1076.9880: real time 1078.6939
       DOS:  cpu time    0.0560: real time    0.0578
    CHARGE:  cpu time   42.5480: real time   42.6164
    MIXING:  cpu time    0.0920: real time    0.0891
    --------------------------------------------
      LOOP:  cpu time 1123.1800: real time 1124.9665

 eigenvalue-minimisations  : 44496
 total energy-change (2. order) :-0.4337030E+00  (-0.2211679E+00)
 number of electron     432.0000002 magnetization     101.7424979
 augmentation part       90.1417313 magnetization      73.1051386

 Broyden mixing:
  rms(total) = 0.40705E+00    rms(broyden)= 0.40684E+00
  rms(prec ) = 0.57277E+00
  weight for this iteration     100.00

 eigenvalues of (default mixing * dielectric matrix)
  average eigenvalue GAMMA=   0.7057
  2.1360  2.1360  1.1627  1.1627  0.5183  0.3368  0.3533  0.0973  0.1115  0.1392
  0.1483  0.1666

 Free energy of the ion-electron system (eV)
  ---------------------------------------------------
  alpha Z        PSCENC =      1700.89082154
  Ewald energy   TEWEN  =    -21120.61003066
  -Hartree energ DENC   =     -3519.46124607
  -exchange      EXHF   =         0.00000000
  -V(xc)+E(xc)   XCENC  =      -789.76372509
  PAW double counting   =     14846.85597104   -13569.95069598
  entropy T*S    EENTRO =         0.02943868
  eigenvalues    EBANDS =       813.09197728
  atomic energy  EATOM  =     21129.20924906
  Solvation  Ediel_sol  =         0.00000000
  ---------------------------------------------------
  free energy    TOTEN  =      -509.70824019 eV

  energy without entropy =     -509.73767887  energy(sigma->0) =     -509.71805308


--------------------------------------------------------------------------------------------------------




----------------------------------------- Iteration    1(  18)  ---------------------------------------


    POTLOK:  cpu time    1.4480: real time    1.4492
    SETDIJ:  cpu time    2.0240: real time    2.0298
     EDDAV:  cpu time 1163.3360: real time 1165.2936
       DOS:  cpu time    0.0520: real time    0.0549
    CHARGE:  cpu time   42.4880: real time   42.5577
    MIXING:  cpu time    0.1280: real time    0.1311
    --------------------------------------------
      LOOP:  cpu time 1209.4800: real time 1211.5222

 eigenvalue-minimisations  : 48448
 total energy-change (2. order) : 0.4515742E-01  (-0.6362135E-01)
 number of electron     432.0000002 magnetization     102.9690480
 augmentation part       90.3359962 magnetization      74.1825884

 Broyden mixing:
  rms(total) = 0.18348E+00    rms(broyden)= 0.18333E+00
  rms(prec ) = 0.24895E+00
  weight for this iteration     100.00

 eigenvalues of (default mixing * dielectric matrix)
  average eigenvalue GAMMA=   0.6981
  1.8444  1.8444  1.6496  1.3301  0.6792  0.5421  0.3364  0.0973  0.1115  0.1902
  0.1628  0.1392  0.1476

 Free energy of the ion-electron system (eV)
  ---------------------------------------------------
  alpha Z        PSCENC =      1700.89082154
  Ewald energy   TEWEN  =    -21120.61003066
  -Hartree energ DENC   =     -3515.85563326
  -exchange      EXHF   =         0.00000000
  -V(xc)+E(xc)   XCENC  =      -787.83096742
  PAW double counting   =     14862.89650445   -13587.54191080
  entropy T*S    EENTRO =         0.02519816
  eigenvalues    EBANDS =       809.15368614
  atomic energy  EATOM  =     21129.20924906
  Solvation  Ediel_sol  =         0.00000000
  ---------------------------------------------------
  free energy    TOTEN  =      -509.66308277 eV

  energy without entropy =     -509.68828093  energy(sigma->0) =     -509.67148216


--------------------------------------------------------------------------------------------------------




----------------------------------------- Iteration    1(  19)  ---------------------------------------


    POTLOK:  cpu time    1.4360: real time    1.4406
    SETDIJ:  cpu time    2.0080: real time    2.0094
     EDDAV:  cpu time 1131.3280: real time 1133.4448
       DOS:  cpu time    0.0560: real time    0.0550
    CHARGE:  cpu time   42.5520: real time   42.6269
    MIXING:  cpu time    0.1480: real time    0.1478
    --------------------------------------------
      LOOP:  cpu time 1177.5320: real time 1179.7312

 eigenvalue-minimisations  : 46736
 total energy-change (2. order) : 0.2828146E-03  (-0.9093126E-02)
 number of electron     432.0000002 magnetization     103.0596059
 augmentation part       90.2421966 magnetization      74.0751011

 Broyden mixing:
  rms(total) = 0.99879E-01    rms(broyden)= 0.99821E-01
  rms(prec ) = 0.13511E+00
  weight for this iteration     100.00

 eigenvalues of (default mixing * dielectric matrix)
  average eigenvalue GAMMA=   0.7303
  1.9175  1.9175  1.9556  1.0266  1.0266  0.6716  0.5264  0.3365  0.0973  0.1115
  0.1392  0.1479  0.1652  0.1854

 Free energy of the ion-electron system (eV)
  ---------------------------------------------------
  alpha Z        PSCENC =      1700.89082154
  Ewald energy   TEWEN  =    -21120.61003066
  -Hartree energ DENC   =     -3515.16718334
  -exchange      EXHF   =         0.00000000
  -V(xc)+E(xc)   XCENC  =      -786.49042805
  PAW double counting   =     14879.39926167   -13605.79500968
  entropy T*S    EENTRO =         0.01936639
  eigenvalues    EBANDS =       808.88115311
  atomic energy  EATOM  =     21129.20924906
  Solvation  Ediel_sol  =         0.00000000
  ---------------------------------------------------
  free energy    TOTEN  =      -509.66279996 eV

  energy without entropy =     -509.68216635  energy(sigma->0) =     -509.66925542


--------------------------------------------------------------------------------------------------------




----------------------------------------- Iteration    1(  20)  ---------------------------------------


    POTLOK:  cpu time    1.4560: real time    1.4602
    SETDIJ:  cpu time    2.0160: real time    2.0193
     EDDAV:  cpu time 1251.7280: real time 1254.3318
       DOS:  cpu time    0.0520: real time    0.0522
    CHARGE:  cpu time   42.2640: real time   42.3409
    MIXING:  cpu time    0.1040: real time    0.1024
    --------------------------------------------
      LOOP:  cpu time 1297.6200: real time 1300.3149

 eigenvalue-minimisations  : 52696
 total energy-change (2. order) :-0.7006763E-02  (-0.6249323E-02)
 number of electron     432.0000002 magnetization     103.1901523
 augmentation part       90.1873041 magnetization      74.1691567

 Broyden mixing:
  rms(total) = 0.11857E+00    rms(broyden)= 0.11854E+00
  rms(prec ) = 0.17071E+00
  weight for this iteration     100.00

 eigenvalues of (default mixing * dielectric matrix)
  average eigenvalue GAMMA=   0.7258
  1.9569  1.9569  1.9978  1.1777  1.1777  0.6920  0.5302  0.3365  0.0973  0.1115
  0.2103  0.1902  0.1392  0.1478  0.1649

 Free energy of the ion-electron system (eV)
  ---------------------------------------------------
  alpha Z        PSCENC =      1700.89082154
  Ewald energy   TEWEN  =    -21120.61003066
  -Hartree energ DENC   =     -3514.99292271
  -exchange      EXHF   =         0.00000000
  -V(xc)+E(xc)   XCENC  =      -786.69634659
  PAW double counting   =     14884.05418959   -13611.04174603
  entropy T*S    EENTRO =         0.01882896
  eigenvalues    EBANDS =       809.49815012
  atomic energy  EATOM  =     21129.20924906
  Solvation  Ediel_sol  =         0.00000000
  ---------------------------------------------------
  free energy    TOTEN  =      -509.66980672 eV

  energy without entropy =     -509.68863568  energy(sigma->0) =     -509.67608304


--------------------------------------------------------------------------------------------------------




----------------------------------------- Iteration    1(  21)  ---------------------------------------


    POTLOK:  cpu time    1.4640: real time    1.4661
    SETDIJ:  cpu time    2.0600: real time    2.0632
     EDDAV:  cpu time 1250.1880: real time 1252.5517
       DOS:  cpu time    0.0560: real time    0.0560
    CHARGE:  cpu time   42.9320: real time   43.0044
    MIXING:  cpu time    0.1520: real time    0.1521
    --------------------------------------------
      LOOP:  cpu time 1296.8520: real time 1299.2984

 eigenvalue-minimisations  : 52744
 total energy-change (2. order) : 0.1088237E-01  (-0.3688027E-02)
 number of electron     432.0000002 magnetization     103.8120130
 augmentation part       90.1178282 magnetization      74.7312567

 Broyden mixing:
  rms(total) = 0.43832E-01    rms(broyden)= 0.43798E-01
  rms(prec ) = 0.49100E-01
  weight for this iteration     100.00

 eigenvalues of (default mixing * dielectric matrix)
  average eigenvalue GAMMA=   0.7505
  2.4053  1.7723  1.7723  1.4592  1.0109  1.0109  0.6637  0.5362  0.3365  0.0973
  0.1115  0.1392  0.1478  0.1650  0.1965  0.1838

 Free energy of the ion-electron system (eV)
  ---------------------------------------------------
  alpha Z        PSCENC =      1700.89082154
  Ewald energy   TEWEN  =    -21120.61003066
  -Hartree energ DENC   =     -3514.77343040
  -exchange      EXHF   =         0.00000000
  -V(xc)+E(xc)   XCENC  =      -786.92073336
  PAW double counting   =     14888.91329687   -13616.65017891
  entropy T*S    EENTRO =         0.01814563
  eigenvalues    EBANDS =       810.26393588
  atomic energy  EATOM  =     21129.20924906
  Solvation  Ediel_sol  =         0.00000000
  ---------------------------------------------------
  free energy    TOTEN  =      -509.65892435 eV

  energy without entropy =     -509.67706998  energy(sigma->0) =     -509.66497289


--------------------------------------------------------------------------------------------------------




----------------------------------------- Iteration    1(  22)  ---------------------------------------


    POTLOK:  cpu time    1.4680: real time    1.4713
    SETDIJ:  cpu time    2.0760: real time    2.0791
     EDDAV:  cpu time 1137.3920: real time 1139.4558
       DOS:  cpu time    0.0520: real time    0.0562
    CHARGE:  cpu time   42.7560: real time   42.8199
    MIXING:  cpu time    0.1160: real time    0.1162
    --------------------------------------------
      LOOP:  cpu time 1183.8640: real time 1186.0046

 eigenvalue-minimisations  : 47304
 total energy-change (2. order) :-0.2951795E-02  (-0.1247536E-02)
 number of electron     432.0000002 magnetization     103.9190205
 augmentation part       90.0389396 magnetization      74.7466559

 Broyden mixing:
  rms(total) = 0.38682E-01    rms(broyden)= 0.38670E-01
  rms(prec ) = 0.56037E-01
  weight for this iteration     100.00

 eigenvalues of (default mixing * dielectric matrix)
  average eigenvalue GAMMA=   0.7424
  2.3362  1.7693  1.7693  1.8183  1.0166  1.0166  0.6681  0.5353  0.3366  0.3141
  0.0973  0.1115  0.1392  0.1478  0.1651  0.1836  0.1966

 Free energy of the ion-electron system (eV)
  ---------------------------------------------------
  alpha Z        PSCENC =      1700.89082154
  Ewald energy   TEWEN  =    -21120.61003066
  -Hartree energ DENC   =     -3514.74328405
  -exchange      EXHF   =         0.00000000
  -V(xc)+E(xc)   XCENC  =      -786.05909251
  PAW double counting   =     14893.21220442   -13621.83465615
  entropy T*S    EENTRO =         0.01594703
  eigenvalues    EBANDS =       810.25696516
  atomic energy  EATOM  =     21129.20924906
  Solvation  Ediel_sol  =         0.00000000
  ---------------------------------------------------
  free energy    TOTEN  =      -509.66187615 eV

  energy without entropy =     -509.67782317  energy(sigma->0) =     -509.66719182


--------------------------------------------------------------------------------------------------------




----------------------------------------- Iteration    1(  23)  ---------------------------------------


    POTLOK:  cpu time    1.4480: real time    1.4481
    SETDIJ:  cpu time    2.0920: real time    2.0970
     EDDAV:  cpu time 1097.1520: real time 1098.9790
       DOS:  cpu time    0.0520: real time    0.0548
    CHARGE:  cpu time   42.7440: real time   42.8089
    MIXING:  cpu time    0.1400: real time    0.1403
    --------------------------------------------
      LOOP:  cpu time 1143.6280: real time 1145.5338

 eigenvalue-minimisations  : 45464
 total energy-change (2. order) : 0.8678408E-03  (-0.5419180E-03)
 number of electron     432.0000002 magnetization     103.7449989
 augmentation part       90.0245726 magnetization      74.5572804

 Broyden mixing:
  rms(total) = 0.20754E-01    rms(broyden)= 0.20745E-01
  rms(prec ) = 0.25157E-01
[...]
    FORCOR:  cpu time    1.5280: real time    1.5318
    FORHAR:  cpu time    0.3080: real time    0.3063
    MIXING:  cpu time    0.0640: real time    0.0665
    OFIELD:  cpu time    0.0000: real time    0.0001

  FORCE on cell =-STRESS in cart. coord.  units (eV):
  Direction    XX          YY          ZZ          XY          YZ          ZX
  --------------------------------------------------------------------------------------
  Alpha Z  1700.89082  1700.89082  1700.89082
  Ewald   -7519.77161 -7518.07209 -6082.89334     0.00000    -3.89593    -0.00000
  Hartree   863.82821   864.97730  1785.41613    -0.00000    -0.92721    -0.00000
  E(xc)   -1890.12704 -1890.12585 -1899.95823     0.00004     0.06416     0.00000
  Local    1209.52989  1206.51493 -1207.22892    -0.00054     4.59417     0.00000
  n-local   475.96840   475.94815   451.81952    -0.12733    -0.23328    -0.00270
  augment  1017.90914  1017.92604  1058.51326     0.00061    -0.01055     0.00000
  Kinetic  4142.21175  4142.12081  4193.77332     1.38932    -0.02678     0.00129
  Fock        0.00000     0.00000     0.00000     0.00000     0.00000     0.00000
  -------------------------------------------------------------------------------------
  Total       0.43955     0.18010     0.33257     0.00000    -0.43542     0.00000
  in kB       0.61009     0.24998     0.46160     0.00000    -0.60435     0.00000
  external pressure =        0.44 kB  Pullay stress =        0.00 kB


 VOLUME and BASIS-vectors are now :
 -----------------------------------------------------------------------------
  energy-cutoff  :      320.00
  volume of cell :     1154.33
      direct lattice vectors                 reciprocal lattice vectors
    11.000217144  0.000000000  0.000000000     0.090907296  0.052485352 -0.000000000
    -5.500108572  9.526467494  0.000000000     0.000000000  0.104970704  0.000000000
     0.000000000  0.000000000 11.015273102     0.000000000 -0.000000000  0.090783042

  length of vectors
    11.000217144 11.000217144 11.015273102     0.104970704  0.104970704  0.090783042


 FORCES acting on ions
    electron-ion (+dipol)            ewald-force                    non-local-force                 convergence-correction
 -----------------------------------------------------------------------------------------------
   -.519E-01 -.371E+01 0.188E-01   0.731E-01 0.378E+01 -.799E-14   -.248E-01 -.773E-01 -.184E-01   0.385E-03 -.583E-03 0.393E-03
   0.336E+00 0.379E+01 -.245E-01   -.314E+00 -.387E+01 0.568E-12   -.283E-01 0.906E-01 0.233E-01   -.341E-03 -.438E-03 -.911E-04
   -.123E+01 0.940E-01 -.316E-02   0.123E+01 -.920E-01 0.117E-11   0.141E-01 -.146E-02 -.796E-03   -.311E-04 -.114E-02 0.374E-03
   -.600E+01 -.178E-05 0.100E-05   0.613E+01 -.981E-11 -.613E-12   -.147E+00 0.000E+00 0.000E+00   0.617E-03 -.201E-08 -.649E-08
   0.251E+02 0.200E-05 -.951E-06   -.257E+02 -.129E-12 -.115E-13   -.755E+00 0.000E+00 0.000E+00   0.160E-03 0.283E-07 0.287E-08
   -.685E+01 0.264E-06 -.311E-06   0.701E+01 0.983E-11 0.575E-12   -.195E+00 0.000E+00 0.000E+00   -.823E-03 0.213E-07 0.138E-07
   -.123E+01 -.940E-01 0.316E-02   0.123E+01 0.920E-01 -.119E-11   0.141E-01 0.146E-02 0.796E-03   -.311E-04 0.114E-02 -.374E-03
   -.519E-01 0.371E+01 -.188E-01   0.731E-01 -.378E+01 -.641E-12   -.248E-01 0.773E-01 0.184E-01   0.385E-03 0.583E-03 -.393E-03
   0.336E+00 -.379E+01 0.245E-01   -.314E+00 0.387E+01 0.124E-13   -.283E-01 -.906E-01 -.233E-01   -.341E-03 0.438E-03 0.911E-04
   0.160E+00 -.408E+00 -.600E-02   -.152E+00 0.405E+00 -.160E-13   -.700E-02 0.587E-02 0.120E-01   -.518E-03 -.543E-03 -.399E-03
   0.208E+00 0.389E+00 0.669E-02   -.201E+00 -.383E+00 0.632E-12   -.514E-02 -.512E-02 -.128E-01   -.480E-03 -.226E-02 0.825E-04
   -.386E+00 0.249E-01 0.705E-03   0.359E+00 -.226E-01 0.112E-11   0.112E-01 -.105E-02 0.156E-02   0.999E-03 -.136E-02 -.321E-03
   -.539E+00 0.454E-08 -.421E-08   0.540E+00 -.980E-11 -.573E-12   0.314E-02 0.000E+00 0.000E+00   0.938E-03 -.321E-07 -.377E-08
   0.106E+01 0.586E-08 0.640E-08   -.104E+01 0.142E-13 -.115E-13   -.161E-01 0.000E+00 0.000E+00   -.196E-02 -.527E-08 0.736E-08
   -.474E+00 -.560E-08 -.279E-08   0.474E+00 0.984E-11 0.525E-12   0.362E-02 0.000E+00 0.000E+00   0.103E-02 0.130E-07 -.402E-08
   -.386E+00 -.249E-01 -.705E-03   0.359E+00 0.226E-01 -.113E-11   0.112E-01 0.105E-02 -.156E-02   0.999E-03 0.136E-02 0.321E-03
   0.160E+00 0.408E+00 0.600E-02   -.152E+00 -.405E+00 -.668E-12   -.700E-02 -.587E-02 -.120E-01   -.518E-03 0.543E-03 0.399E-03
   0.208E+00 -.389E+00 -.669E-02   -.201E+00 0.383E+00 -.213E-13   -.514E-02 0.512E-02 0.128E-01   -.480E-03 0.226E-02 -.825E-04
   0.167E+00 -.135E+01 -.891E+00   -.211E+00 0.132E+01 0.865E+00   0.417E-01 0.364E-01 0.307E-01   0.125E-03 -.354E-03 -.139E-02
   0.322E+00 0.132E+01 0.885E+00   -.368E+00 -.129E+01 -.859E+00   0.430E-01 -.378E-01 -.321E-01   -.814E-03 -.187E-02 0.177E-03
   -.741E+00 0.560E-01 0.280E-01   0.728E+00 -.508E-01 -.241E-01   0.132E-01 -.423E-02 -.403E-02   0.688E-03 -.164E-02 -.163E-03
   -.197E+01 0.295E-01 -.159E+01   0.198E+01 -.980E-11 0.160E+01   0.314E-03 -.249E-01 -.495E-02   0.148E-02 0.292E-03 -.147E-02
   0.615E+01 -.621E-02 -.705E+00   -.622E+01 0.160E-13 0.706E+00   0.513E-01 0.373E-02 0.872E-02   -.157E-02 0.998E-04 0.120E-02
   -.198E+01 -.156E-01 0.187E+01   0.198E+01 0.983E-11 -.187E+01   0.823E-02 0.188E-01 -.867E-02   0.888E-04 0.177E-03 0.894E-03
   -.730E+00 -.542E-01 0.236E-01   0.728E+00 0.508E-01 -.241E-01   0.193E-02 0.236E-02 -.196E-02   0.981E-03 0.155E-02 -.112E-03
   0.194E+00 0.125E+01 -.834E+00   -.211E+00 -.132E+01 0.865E+00   0.142E-01 0.587E-01 -.301E-01   -.261E-03 0.251E-03 -.141E-02
   0.359E+00 -.122E+01 0.832E+00   -.368E+00 0.129E+01 -.859E+00   0.743E-02 -.641E-01 0.297E-01   -.722E-03 0.149E-02 0.178E-03
   0.194E+00 -.125E+01 0.834E+00   -.211E+00 0.132E+01 -.865E+00   0.142E-01 -.587E-01 0.301E-01   -.261E-03 -.251E-03 0.141E-02
   0.359E+00 0.122E+01 -.832E+00   -.368E+00 -.129E+01 0.859E+00   0.743E-02 0.641E-01 -.297E-01   -.722E-03 -.149E-02 -.178E-03
   -.730E+00 0.542E-01 -.236E-01   0.728E+00 -.508E-01 0.241E-01   0.193E-02 -.236E-02 0.196E-02   0.981E-03 -.155E-02 0.112E-03
   -.197E+01 -.295E-01 0.159E+01   0.198E+01 -.981E-11 -.160E+01   0.314E-03 0.249E-01 0.495E-02   0.148E-02 -.292E-03 0.147E-02
   0.615E+01 0.621E-02 0.705E+00   -.622E+01 0.213E-13 -.706E+00   0.513E-01 -.373E-02 -.872E-02   -.157E-02 -.998E-04 -.120E-02
   -.198E+01 0.156E-01 -.187E+01   0.198E+01 0.984E-11 0.187E+01   0.823E-02 -.188E-01 0.867E-02   0.888E-04 -.177E-03 -.894E-03
   -.741E+00 -.560E-01 -.280E-01   0.728E+00 0.508E-01 0.241E-01   0.132E-01 0.423E-02 0.403E-02   0.688E-03 0.164E-02 0.163E-03
   0.167E+00 0.135E+01 0.891E+00   -.211E+00 -.132E+01 -.865E+00   0.417E-01 -.364E-01 -.307E-01   0.125E-03 0.354E-03 0.139E-02
   0.322E+00 -.132E+01 -.885E+00   -.368E+00 0.129E+01 0.859E+00   0.430E-01 0.378E-01 0.321E-01   -.814E-03 0.187E-02 -.177E-03
   0.174E+00 -.266E-01 -.637E-02   -.167E+00 0.256E-01 0.729E-02   -.225E-02 0.104E-02 -.239E-03   -.152E-02 0.136E-03 -.352E-03
   -.891E-01 0.370E+00 0.571E-01   0.791E-01 -.368E+00 -.517E-01   0.120E-01 0.794E-02 -.996E-02   0.228E-03 -.272E-02 -.418E-03
   -.938E-01 -.342E+00 -.479E-01   0.841E-01 0.344E+00 0.448E-01   0.745E-02 -.820E-02 0.984E-02   0.129E-02 0.112E-02 -.702E-03
   0.240E+00 -.291E+00 -.832E+00   -.239E+00 0.295E+00 0.836E+00   -.567E-02 -.259E-02 -.187E-01   -.972E-03 -.208E-02 -.742E-04
   0.365E+00 0.289E+00 0.835E+00   -.364E+00 -.289E+00 -.828E+00   -.602E-02 0.281E-02 0.300E-02   -.303E-03 -.102E-02 -.467E-03
   -.707E+00 0.145E-01 0.289E-01   0.699E+00 -.110E-01 -.245E-01   -.349E-02 -.522E-02 -.458E-02   0.127E-02 -.740E-03 -.128E-02
   -.410E+00 0.308E+00 -.337E+00   0.398E+00 -.301E+00 0.321E+00   0.207E-01 -.130E-01 0.338E-01   0.181E-02 0.155E-02 -.276E-03
   0.805E+00 0.288E-01 -.378E-01   -.805E+00 -.328E-01 0.448E-01   -.734E-03 0.149E-02 -.776E-02   -.253E-02 0.223E-02 0.196E-03
   -.364E+00 -.339E+00 0.377E+00   0.359E+00 0.330E+00 -.358E+00   0.164E-01 0.113E-01 -.365E-01   0.724E-03 0.152E-02 -.943E-03
   0.568E+00 -.850E-01 0.176E-01   -.572E+00 0.861E-01 -.172E-01   0.692E-02 -.203E-02 -.791E-03   -.112E-02 0.112E-03 0.234E-03
   -.250E+00 0.965E+00 -.830E-01   0.260E+00 -.970E+00 0.805E-01   -.136E-01 0.497E-02 0.742E-03   0.684E-03 -.108E-02 0.133E-03
   -.255E+00 -.891E+00 0.670E-01   0.255E+00 0.897E+00 -.666E-01   -.318E-02 -.493E-02 -.258E-03   0.435E-03 0.785E-03 0.573E-03
   -.419E+01 -.520E+01 0.665E+01   0.415E+01 0.518E+01 -.667E+01   0.268E+00 0.117E+00 -.157E+00   0.772E-03 -.158E-02 0.101E-02
   -.385E+01 0.626E+01 -.802E+01   0.374E+01 -.618E+01 0.797E+01   0.523E+00 -.313E+00 0.410E+00   -.657E-03 -.146E-03 -.194E-02
   -.186E+01 0.316E-01 -.443E-01   0.188E+01 -.377E-01 0.441E-01   -.194E-01 0.693E-02 -.186E-02   -.141E-03 -.142E-02 -.693E-03
   -.161E+01 0.117E+01 0.680E+00   0.160E+01 -.117E+01 -.673E+00   0.798E-02 0.157E-03 -.818E-02   0.801E-03 0.172E-02 0.776E-03
   0.575E+01 0.604E+00 0.391E+00   -.575E+01 -.609E+00 -.391E+00   0.447E-01 -.292E-01 -.238E-01   -.102E-02 0.665E-03 -.115E-03
   -.165E+01 -.138E+01 -.805E+00   0.163E+01 0.136E+01 0.793E+00   0.289E-01 0.153E-01 0.161E-01   0.231E-03 0.936E-03 -.170E-02
   -.161E+01 -.117E+01 -.680E+00   0.160E+01 0.117E+01 0.673E+00   0.798E-02 -.157E-03 0.818E-02   0.801E-03 -.172E-02 -.776E-03
   0.575E+01 -.604E+00 -.391E+00   -.575E+01 0.609E+00 0.391E+00   0.447E-01 0.292E-01 0.238E-01   -.102E-02 -.665E-03 0.115E-03
   -.165E+01 0.138E+01 0.805E+00   0.163E+01 -.136E+01 -.793E+00   0.289E-01 -.153E-01 -.161E-01   0.231E-03 -.936E-03 0.170E-02
   -.186E+01 -.316E-01 0.443E-01   0.188E+01 0.377E-01 -.441E-01   -.194E-01 -.693E-02 0.186E-02   -.141E-03 0.142E-02 0.693E-03
   -.419E+01 0.520E+01 -.665E+01   0.415E+01 -.518E+01 0.667E+01   0.268E+00 -.117E+00 0.157E+00   0.772E-03 0.158E-02 -.101E-02
   -.385E+01 -.626E+01 0.802E+01   0.374E+01 0.618E+01 -.797E+01   0.523E+00 0.313E+00 -.410E+00   -.657E-03 0.146E-03 0.194E-02
   -.250E+00 -.965E+00 0.830E-01   0.260E+00 0.970E+00 -.805E-01   -.136E-01 -.497E-02 -.742E-03   0.684E-03 0.108E-02 -.133E-03
   -.255E+00 0.891E+00 -.670E-01   0.255E+00 -.897E+00 0.666E-01   -.318E-02 0.493E-02 0.258E-03   0.435E-03 -.785E-03 -.573E-03
   0.568E+00 0.850E-01 -.176E-01   -.572E+00 -.861E-01 0.172E-01   0.692E-02 0.203E-02 0.791E-03   -.112E-02 -.112E-03 -.234E-03
   -.410E+00 -.308E+00 0.337E+00   0.398E+00 0.301E+00 -.321E+00   0.207E-01 0.130E-01 -.338E-01   0.181E-02 -.155E-02 0.276E-03
   0.805E+00 -.288E-01 0.378E-01   -.805E+00 0.328E-01 -.448E-01   -.734E-03 -.149E-02 0.776E-02   -.253E-02 -.223E-02 -.196E-03
   -.364E+00 0.339E+00 -.377E+00   0.359E+00 -.330E+00 0.358E+00   0.164E-01 -.113E-01 0.365E-01   0.724E-03 -.152E-02 0.943E-03
   -.707E+00 -.145E-01 -.289E-01   0.699E+00 0.110E-01 0.245E-01   -.349E-02 0.522E-02 0.458E-02   0.127E-02 0.740E-03 0.128E-02
   0.240E+00 0.291E+00 0.832E+00   -.239E+00 -.295E+00 -.836E+00   -.567E-02 0.259E-02 0.187E-01   -.972E-03 0.208E-02 0.742E-04
   0.365E+00 -.289E+00 -.835E+00   -.364E+00 0.289E+00 0.828E+00   -.602E-02 -.281E-02 -.300E-02   -.303E-03 0.102E-02 0.467E-03
   -.891E-01 -.370E+00 -.571E-01   0.791E-01 0.368E+00 0.517E-01   0.120E-01 -.794E-02 0.996E-02   0.228E-03 0.272E-02 0.418E-03
   -.938E-01 0.342E+00 0.479E-01   0.841E-01 -.344E+00 -.448E-01   0.745E-02 0.820E-02 -.984E-02   0.129E-02 -.112E-02 0.702E-03
   0.174E+00 0.266E-01 0.637E-02   -.167E+00 -.256E-01 -.729E-02   -.225E-02 -.104E-02 0.239E-03   -.152E-02 -.136E-03 0.352E-03
 -----------------------------------------------------------------------------------------------
   -.944E+00 0.304E-06 -.220E-06   -.185E-13 -.167E-12 -.405E-12   0.940E+00 -.434E-17 -.710E-16   -.739E-04 0.441E-07 0.902E-08


 POSITION                                       TOTAL-FORCE (eV/Angst)
 -----------------------------------------------------------------------------------
      3.66674      6.35098      0.00000        -0.003075     -0.009788      0.000823
     -3.66674      6.35098      0.00000        -0.007311      0.013345     -0.001366
     -0.00000      6.35098      0.00000         0.008882     -0.000687     -0.003582
      7.33348      0.00000      0.00000        -0.013371     -0.000000      0.000000
      0.19800      0.00000      0.00000        -1.297474     -0.000000      0.000000
      3.66674      0.00000      0.00000        -0.040932     -0.000000      0.000000
      5.50011      3.17549      0.00000         0.008882      0.000687      0.003582
     -1.83337      3.17549      0.00000        -0.003075      0.009788     -0.000823
      1.83337      3.17549      0.00000        -0.007311     -0.013345      0.001366
      3.66674      6.35098      5.50764         0.000152      0.002447      0.005615
     -3.66674      6.35098      5.50764         0.001732     -0.001963     -0.006001
     -0.00000      6.35098      5.50764        -0.014476     -0.000159      0.001946
      7.33348      0.00000      5.50764         0.005260     -0.000000      0.000000
      0.00000      0.00000      5.50764        -0.004277     -0.000000      0.000000
      3.66674      0.00000      5.50764         0.004432     -0.000000      0.000000
      5.50011      3.17549      5.50764        -0.014476      0.000159     -0.001946
     -1.83337      3.17549      5.50764         0.000152     -0.002447     -0.005615
      1.83337      3.17549      5.50764         0.001732      0.001963      0.006001
      3.66674      6.35098      8.26145        -0.002658      0.005286      0.003609
     -3.66674      6.35098      8.26145        -0.003561     -0.008451     -0.005599
     -0.00000      6.35098      8.26145         0.000760     -0.000670     -0.000314
      7.33348      0.00000      8.26145         0.009807      0.004912      0.002556
      0.00000      0.00000      8.26145        -0.021641     -0.002374      0.011205
      3.66674      0.00000      8.26145         0.012271      0.003439     -0.005283
      5.50011      3.17549      8.26145         0.000643      0.000536     -0.002634
     -1.83337      3.17549      8.26145        -0.003830     -0.010757     -0.000220
      1.83337      3.17549      8.26145        -0.001455      0.007053      0.002376
      3.66674      6.35098      2.75382        -0.003830      0.010757      0.000220
     -3.66674      6.35098      2.75382        -0.001455     -0.007053     -0.002376
     -0.00000      6.35098      2.75382         0.000643     -0.000536      0.002634
      7.33348      0.00000      2.75382         0.009807     -0.004912     -0.002556
      0.00000      0.00000      2.75382        -0.021641      0.002374     -0.011205
      3.66674      0.00000      2.75382         0.012271     -0.003439      0.005283
      5.50011      3.17549      2.75382         0.000760      0.000670      0.000314
     -1.83337      3.17549      2.75382        -0.002658     -0.005286     -0.003609
      1.83337      3.17549      2.75382        -0.003561      0.008451      0.005599
      5.50011      5.29248      6.88455         0.003529      0.000140      0.000326
     -1.83337      5.29248      6.88455         0.002384      0.006913     -0.004912
      1.83337      5.29248      6.88455        -0.000955     -0.005344      0.006100
      3.66674      8.46797      6.88455        -0.005506     -0.000465     -0.014689
     -3.66674      8.46797      6.88455        -0.005369      0.002165      0.009690
     -0.00000      8.46797      6.88455        -0.009512     -0.002437     -0.001501
      7.33348      2.11699      6.88455         0.010235     -0.004644      0.018237
     -0.00000      2.11699      6.88455        -0.003009     -0.000253     -0.000510
      3.66674      2.11699      6.88455         0.011380      0.003872     -0.018817
      5.50011      5.29248      1.37691         0.002119     -0.000841     -0.000221
     -1.83337      5.29248      1.37691        -0.003209     -0.000415     -0.001625
      1.83337      5.29248      1.37691        -0.002160      0.002558      0.000685
      3.66674      8.46797      1.37691         0.227304      0.101030     -0.172472
     -3.66674      8.46797      1.37691         0.413695     -0.230693      0.356732
     -0.00000      8.46797      1.37691        -0.001362     -0.000563     -0.002788
      7.33348      2.11699      1.37691        -0.001588      0.001624      0.000045
     -0.00000      2.11699      1.37691         0.048489     -0.033529     -0.023097
      3.66674      2.11699      1.37691         0.010477      0.004615      0.002789
      1.83337      7.40947      9.63836        -0.001588     -0.001624     -0.000045
      5.50011      7.40947      9.63836         0.048489      0.033529      0.023097
     -1.83337      7.40947      9.63836         0.010477     -0.004615     -0.002789
      5.50011      1.05850      9.63836        -0.001362      0.000563      0.002788
      9.16685      1.05850      9.63836         0.227304     -0.101030      0.172472
      1.83337      1.05850      9.63836         0.413695      0.230693     -0.356732
      3.66674      4.23399      9.63836        -0.003209      0.000415      0.001625
      7.33348      4.23399      9.63836        -0.002160     -0.002558     -0.000685
     -0.00000      4.23399      9.63836         0.002119      0.000841      0.000221
      1.83337      7.40947      4.13073         0.010235      0.004644     -0.018237
      5.50011      7.40947      4.13073        -0.003009      0.000253      0.000510
     -1.83337      7.40947      4.13073         0.011380     -0.003872      0.018817
      5.50011      1.05850      4.13073        -0.009512      0.002437      0.001501
      9.16685      1.05850      4.13073        -0.005506      0.000465      0.014689
      1.83337      1.05850      4.13073        -0.005369     -0.002165     -0.009690
      3.66674      4.23399      4.13073         0.002384     -0.006913      0.004912
      7.33348      4.23399      4.13073        -0.000955      0.005344     -0.006100
     -0.00000      4.23399      4.13073         0.003529     -0.000140     -0.000326
 -----------------------------------------------------------------------------------
    total drift:                               -0.004488      0.000000     -0.000000


--------------------------------------------------------------------------------------------------------



  FREE ENERGIE OF THE ION-ELECTRON SYSTEM (eV)
  ---------------------------------------------------
  free  energy   TOTEN  =      -509.66120082 eV

  energy  without entropy=     -509.67725820  energy(sigma->0) =     -509.66655328



--------------------------------------------------------------------------------------------------------


    POTLOK:  cpu time    3.4560: real time    3.4593


--------------------------------------------------------------------------------------------------------


     LOOP+:  cpu time38635.5280: real time38707.9801
    4ORBIT:  cpu time    0.0000: real time    0.0000

 total amount of memory used by VASP on root node   334140. kBytes
========================================================================

   base      :      30000. kBytes
   nonlr-proj:      20521. kBytes
   fftplans  :      28296. kBytes
   grid      :      21369. kBytes
   one-center:        559. kBytes
   wavefun   :     233395. kBytes

  
  
 General timing and accounting informations for this job:
 ========================================================
  
                  Total CPU time used (sec):    38790.934
                            User time (sec):    38408.884
                          System time (sec):      382.048
                         Elapsed time (sec):    38867.356
  
                   Maximum memory used (kb):      382796.
                   Average memory used (kb):           0.
  
                          Minor page faults:        94726
                          Major page faults:            1
                 Voluntary context switches:          521
